ITEM: TIMESTEP
10000000
ITEM: NUMBER OF ATOMS
4000
ITEM: BOX BOUNDS pp pp pp
3.23005382 96.76994618
3.23005382 96.76994618
3.23005382 96.76994618
ITEM: ATOMS id type x y z
49081 20 19.0516718334 24.9626447114 21.0566994262
49082 20 19.268403764 26.8007971362 23.2210254556
49083 21 20.1457144145 23.890677545 21.5228087098
49084 21 17.7560507844 27.2343545373 23.1818322407
49085 22 19.1212655134 25.0007154476 19.6688480432
49086 22 17.8286377408 24.4174942188 21.6112039081
49087 22 19.3511865688 25.8757811407 24.2805518164
49088 22 19.8796869606 28.0802357839 23.5106249623
49089 23 19.5592192894 26.2737933827 21.7473979914
49090 24 19.2417448947 27.471010465 30.9696830589
49091 20 49.4002222102 61.856742596 50.5411282773
49092 20 48.9782637557 61.172778903 47.8968490602
49093 21 47.9216371316 61.8948133322 51.0736508845
49094 21 50.3444138837 61.0764328139 47.1262674269
49095 22 49.6867349005 63.2196188276 50.1533118836
49096 22 50.2295468958 61.3633196638 51.552013894
49097 22 48.1963637955 60.2416828145 47.2097050109
49098 22 48.490546757 62.5159182174 47.7096757355
49099 23 49.2962058499 60.8452957399 49.3772113966
49100 24 48.0385619971 58.7244657604 46.1118272943
49101 20 6.0895402675 37.6906178649 69.1307787854
49102 20 6.9228871685 38.6005739377 71.6145435473
49103 21 7.5294091846 37.9902261401 68.8008635851
49104 21 7.4496944883 40.0589543995 71.3381331654
49105 22 5.292224933 38.2697233385 68.0089548564
49106 22 5.9256396681 36.2642280463 69.2133745104
49107 22 6.278546974 38.7107639309 72.8533858817
49108 22 8.0830905154 37.7763939462 71.5978934464
49109 23 5.8789164918 38.4570837429 70.4843010279
49110 24 94.7730565579 42.7363467386 72.0549293605
49111 20 84.4831071589 73.6353793818 90.1424577265
49112 20 81.6274277851 73.2953618731 90.2361846986
49113 21 85.2356355929 72.5903517044 89.1958340158
49114 21 81.5173313317 71.8811322405 89.6009552896
49115 22 84.5706604982 73.0387819483 91.3952375049
49116 22 85.2676262361 74.7925613902 89.9166524263
49117 22 81.5458609989 73.0158646747 91.6277776773
49118 22 80.4967175662 74.0065456747 89.7634340826
49119 23 82.9778632111 73.7596938988 89.677938621
49120 24 85.091303539 72.4861482643 93.0927994714
49121 20 50.5980005318 62.7193674833 54.600478986
49122 20 49.7673662877 64.8098905377 53.0046884224
49123 21 51.4966382777 63.2944507415 55.7201514976
49124 21 48.4692196615 64.0323869524 52.5005084025
49125 22 51.2465126056 61.5332816482 54.2489560705
49126 22 49.3307220701 62.6078679316 55.1475002765
49127 22 49.4139725743 65.5839331469 54.1035950778
49128 22 50.1187956633 65.6034829844 51.8713590865
49129 23 50.801169178 63.7236117677 53.3949368533
49130 24 47.8077990826 64.0563331648 46.9903539633
49131 20 86.0875969326 19.6434987324 29.3245034321
49132 20 88.2626800496 19.6121628685 27.6562194518
49133 21 86.0251122845 21.0740978462 29.9566460247
49134 21 88.121528352 18.2150510362 27.0408205
49135 22 85.5981026758 18.8343786635 30.3622349979
49136 22 85.2288071808 19.7165533883 28.200995785
49137 22 87.7283801845 20.450280304 26.6266258566
49138 22 89.7062812084 19.7739868822 27.7303965865
49139 23 87.5708590057 19.3638144542 29.0380842817
49140 24 85.1061763819 21.9949980864 23.9907652298
49141 20 42.3146689038 37.4516234399 12.4983418066
49142 20 42.9635551371 35.3411763885 10.7212241616
49143 21 43.5793282485 38.3365108216 12.3603049875
49144 21 42.2871681754 33.910296655 10.9466833642
49145 22 41.9234850739 37.5511498854 13.8820026024
49146 22 41.362900499 38.0104307568 11.607290146
49147 22 42.1317984142 35.9142017691 9.7560889062
49148 22 44.2856479757 35.0368911186 10.2926804988
49149 23 42.8595387768 35.9944589967 12.1568276596
49150 24 39.6404569211 41.4612109259 10.6083308655
49151 20 81.1118358984 96.5515305313 22.2064917831
49152 20 82.0442415454 96.673413011 19.5588451298
49153 21 79.6230549716 96.5748219645 21.782475451
49154 21 83.5947588012 96.7016620585 19.555197074
49155 22 81.1139873159 3.8153376035 23.3720923818
49156 22 81.5904795276 95.1806098689 22.2503619926
49157 22 81.7968285301 95.2871518063 19.4460360196
49158 22 81.670923835 3.939128297 18.4099881718
49159 23 81.7363082198 3.7864234874 20.9424872176
49160 24 80.7836044161 93.4637786845 22.5082514758
49161 20 28.2342024467 47.390330543 27.533588653
49162 20 25.717324563 48.6673371535 27.8132729311
49163 21 27.559592743 46.0079980137 27.1396921662
49164 21 24.8047493731 47.9785093862 26.7990198783
49165 22 28.5983532477 47.3151244696 28.8994581612
49166 22 29.2728694115 47.5270858657 26.564608908
49167 22 25.5025569702 47.978696466 29.0794289141
49168 22 25.3137934674 50.0258170103 27.7532203202
49169 23 27.2193881545 48.5329203282 27.3208789377
49170 24 84.9627797269 29.5233692432 21.2172138815
49171 20 21.2178686607 4.2475714151 33.9030940833
49172 20 21.8306484956 95.4948103673 32.2608141932
49173 21 22.3207039916 4.2764752418 34.9668297392
49174 21 20.961288736 95.3200778484 30.9200133761
49175 22 20.168725228 3.5045597297 34.5002527561
49176 22 20.8557757374 5.5800565358 33.6240645844
49177 22 23.0490991334 94.9033576279 31.9578384818
49178 22 21.0727882877 94.7007502211 33.1927521407
49179 23 21.8134371554 3.5019499667 32.6138337469
49180 24 19.6738056575 95.0178504562 34.4480574962
49181 20 10.7303349471 28.7734599262 64.2345266598
49182 20 8.8728010567 30.3326763919 65.7312584774
49183 21 11.1550060584 27.6280639442 65.2289492554
49184 21 8.4917382432 29.654792792 67.0493291006
49185 22 11.7372077025 29.8477655899 64.3216122995
49186 22 10.6768768986 28.1497359239 62.9702414746
49187 22 9.9610441644 31.1741612636 66.0649152735
49188 22 7.6803358009 30.9806272263 65.3228633074
49189 23 9.3005215685 29.1432231207 64.747873589
49190 24 11.9717589826 32.5202003147 69.6888377833
49191 20 93.3333840746 81.2006987961 15.349175814
49192 20 93.9702972016 84.0038087505 15.7527069097
49193 21 92.0357986877 80.9465509086 14.5785006409
49194 21 94.4276137354 84.2716134623 17.2138000284
49195 22 93.3524662126 80.2194653253 16.3238614924
49196 22 94.3982422092 81.2255804075 14.3546596785
49197 22 95.143100372 83.7774422109 15.0272115045
49198 22 93.3455442606 85.2028030907 15.3082988811
49199 23 93.103556559 82.7117422173 15.871502573
49200 24 91.7921272681 86.309660637 14.7391086361
49201 20 49.8668927332 86.3824346733 80.1742855572
49202 20 50.216357771 85.8723616402 83.0006869448
49203 21 48.5334815676 85.7870532584 79.8778576384
49204 21 51.4427592997 86.5845743807 83.4926132387
49205 22 50.6458929567 86.3443639371 78.9931573364
49206 22 49.5483893997 87.7080820278 80.6018564052
49207 22 49.115299698 86.8044866676 83.2566120903
49208 22 50.1585501175 84.72546902 83.7845512428
49209 23 50.3976380824 85.5459074159 81.4301521521
49210 24 49.0035195267 83.7447967885 84.8660594782
49211 20 44.4462559709 90.8727236661 83.63919025
49212 20 47.0765042042 90.6656263444 82.5812540675
49213 21 44.8191995217 91.3385523301 85.089619821
49214 21 48.1775622771 91.7013935725 83.055220702
49215 22 44.2481384789 89.4251938319 83.6360098937
49216 22 43.2335112664 91.568005686 83.3343437408
49217 22 47.3931367398 89.5264975353 83.3517421608
49218 22 47.3115699537 90.5147464981 81.2061241099
49219 23 45.679298832 91.3607212846 82.7738527058
49220 24 43.6009359636 87.5392425221 83.069158146
49221 20 78.466901902 79.6045340729 73.2134209274
49222 20 77.5217748296 82.1639726076 72.4498547861
49223 21 77.5995064801 78.6810147156 72.3948533293
49224 21 78.4149872617 83.2832709596 73.1583259308
49225 22 78.763236281 78.8676268009 74.4517955623
49226 22 79.5564545682 79.8305264528 72.3201149553
49227 22 77.9879776531 81.903838167 71.1341226601
49228 22 76.1836866694 82.7016399089 72.3883990768
49229 23 77.5598455658 80.9013711406 73.3984428345
49230 24 80.5043878374 79.0582611015 70.8599572356
49231 20 90.0102858586 76.833134142 94.7029016386
49232 20 91.0636385864 78.9259021538 93.0771783094
49233 21 90.5647903405 75.712993931 93.8446731262
49234 21 91.153530423 78.1665453076 91.6548107062
49235 22 88.7473102319 76.3115557022 95.1944537729
49236 22 90.9261349447 76.9718538024 95.7579380845
49237 22 90.6066962123 80.2130110727 92.8188211267
49238 22 92.3670234466 78.7285329809 93.6429075784
49239 23 89.8981315276 78.09498729 93.7898587493
49240 24 83.9434755199 67.151568203 7.1531730295
49241 20 24.5289937705 5.38516617 41.4032161926
49242 20 23.2369272373 96.5637842572 41.7055371247
49243 21 25.9961669821 5.3295099341 41.7441691003
49244 21 24.2624986171 95.6934890987 42.3533008793
49245 22 23.9187395127 5.7950579783 42.5670395334
49246 22 24.3777397645 6.4233747893 40.4362007854
49247 22 22.4894499575 3.6153044145 42.8196907826
49248 22 22.494220492 95.7252926621 40.8410414396
49249 23 24.0546529763 4.043082921 40.9039002472
49250 24 20.9245275583 96.2936410481 40.1651221774
49251 20 56.5909143556 87.6549513689 69.8827459801
49252 20 55.9086343807 85.5877197478 71.8379168102
49253 21 55.8619579744 89.0247495527 69.974976314
49254 21 57.1294235159 84.8556765502 72.4778232139
49255 22 55.884033389 86.9387164131 68.8184490849
49256 22 57.9208645451 87.909566956 69.5367419183
49257 22 54.8999937214 85.6016571918 72.7701353775
49258 22 55.573761566 84.6687838452 70.78662196
49259 23 56.4407828283 86.9971788459 71.3446809578
49260 24 53.5784621221 84.6308066489 70.9583612024
49261 20 43.2273376335 60.7255646777 50.4543232572
49262 20 41.2189426047 62.4587653432 49.5096638842
49263 21 44.2638531808 60.5969473257 49.3218357804
49264 21 40.262777825 62.6285402478 50.8087459093
49265 22 42.3351541402 59.6377892694 50.167717027
49266 22 44.161988238 60.6723404789 51.5689446145
49267 22 41.2729151226 63.7530768338 48.9494534689
49268 22 40.7130788668 61.3958715463 48.7097107248
49269 23 42.6137159397 62.1635534429 50.1684653461
49270 24 37.4059759724 58.6003383232 52.0952935888
49271 20 91.9150386867 37.1042162797 75.1420264281
49272 20 91.8279530469 34.6743304958 73.8155372145
49273 21 93.1315249868 36.7457714121 76.039728775
49274 21 91.5323669871 33.2614104217 74.4165310229
49275 22 90.9474620401 37.8091329085 75.966767659
49276 22 92.5174355935 37.8302729242 74.0709011206
49277 22 91.1585815772 34.6556225174 72.5671538111
49278 22 93.1818494489 34.7253097372 73.7074050989
49279 23 91.2529633286 35.7729565316 74.7472880823
49280 24 93.6751788412 39.2247656395 73.4715910303
49281 20 87.9915079017 55.197544119 26.0053338916
49282 20 87.5109934746 57.9261027791 26.5875261816
49283 21 86.7374185648 54.2748666207 25.7389322781
49284 21 86.2070473751 57.8654889289 27.4660528507
49285 22 88.3589325988 54.9137440855 27.4021651042
49286 22 88.9718995135 54.7067403037 25.0816274545
49287 22 88.5507829181 57.9837233528 27.5564123867
49288 22 87.3373834344 59.1213555237 25.7803704505
49289 23 87.4462638691 56.626178895 25.6385639736
49290 24 90.2354363795 58.7539308265 27.73600898
49291 20 39.836048836 24.7858543149 49.3559778411
49292 20 38.2572825328 26.8509345185 50.2986728763
49293 21 39.6054730014 23.8738403644 50.5686290056
49294 21 39.0587323305 28.0389846914 49.7467875114
49295 22 41.0658178009 25.4958220979 49.4511079116
49296 22 39.8459640646 23.8365179473 48.2822334167
49297 22 36.8896357666 27.3478184267 50.1226307989
49298 22 38.6919624126 26.6803177549 51.6494824619
49299 23 38.564748159 25.6779442683 49.2279217284
49300 24 42.0003748655 26.805287051 48.3447180648
49301 20 65.3993789393 21.2464918678 59.6955969229
49302 20 68.1562801868 20.7277196247 59.3147024812
49303 21 64.8866867893 20.6129461768 61.0340592427
49304 21 68.5295978972 19.575214611 60.3218465022
49305 22 65.1727317801 20.3344779173 58.6058571769
49306 22 64.6839858425 22.4696195003 59.6251613839
49307 22 67.8047572713 20.0922095961 58.08175316
49308 22 69.304950065 21.606901073 59.1806598154
49309 23 66.9475576978 21.4740744259 59.9986661741
49310 24 66.294742789 19.4976700402 57.3167839203
49311 20 61.4930594945 17.8414527061 89.9059888786
49312 20 60.9383679328 18.8126774085 87.4186696008
49313 21 63.0084057507 18.0661355275 90.1487248993
49314 21 59.4407007162 18.4877198224 87.2319639757
49315 22 61.3245006084 16.4838147084 89.4915136155
49316 22 60.8901013483 18.0864336842 91.1650358298
49317 22 61.1211448824 20.0394530968 86.723294041
49318 22 61.5580697197 17.6563372591 86.8580850259
49319 23 61.0637113885 18.9409206009 88.9242877083
49320 24 60.2562750377 15.070239855 89.4006863801
49321 20 86.3790672372 77.8104389374 87.3869595773
49322 20 86.6161908643 77.5326254571 84.6064862769
49323 21 86.2944136346 79.3829380679 87.4371904995
49324 21 87.0799616506 76.2114680174 83.9036275257
49325 22 87.1667666707 77.4904389657 88.5416160086
49326 22 85.0199326012 77.2679075617 87.3635746042
49327 22 85.1896139659 77.4603191203 84.6235105373
49328 22 87.1211192032 78.5605353342 83.7234696931
49329 23 87.1948286384 77.5949230254 86.0308182179
49330 24 5.4114134638 80.3991554585 32.2178793826
49331 20 10.150827252 52.2597367196 64.9797589822
49332 20 7.728059854 52.7120020992 63.4950938106
49333 21 9.8925542552 51.2702717382 66.1420856846
49334 21 7.766261546 54.0233378502 62.9141175392
49335 22 11.0866003352 53.1971935208 65.5374438204
49336 22 10.7295117961 51.4794269375 63.9525038843
49337 22 8.1426660729 51.8477870337 62.4046992854
49338 22 6.3673911637 52.5577548167 63.9029277413
49339 23 8.7284035248 52.8325750204 64.719250382
49340 24 35.9678936673 75.2883228197 77.9666505577
49341 20 86.6406983161 19.3129287528 23.4731154655
49342 20 84.6882401429 17.9146944418 24.712799659
49343 21 87.8598037332 18.874787897 24.4292802452
49344 21 85.6155946357 16.9558170052 25.6610135478
49345 22 86.1944194896 20.5792718156 23.9980613414
49346 22 87.237763449 19.4241476848 22.1906835413
49347 22 84.4151971971 18.9976057757 25.559148605
49348 22 83.5315258339 17.1178280988 24.4921390529
49349 23 85.6339284546 18.1315199123 23.4599263407
49350 24 82.9541040784 24.4188037773 25.1173596934
49351 20 53.3809058694 87.5341913679 18.3722915952
49352 20 55.6394265705 85.799587604 18.4688247641
49353 21 52.0852848204 86.5674565804 18.294279325
49354 21 56.8745273092 86.031566537 17.4445629428
49355 22 53.0073075394 88.7262637561 17.6370680413
49356 22 53.6008181564 87.6322211751 19.7943785788
49357 22 56.148190045 86.3256559586 19.6987808088
49358 22 55.4525338655 84.3543027271 18.4682635248
49359 23 54.4059160099 86.5806457052 17.7037619845
49360 24 51.3131130089 80.1583837755 24.7901571499
49361 20 30.9844623619 79.0305732934 3.4359435417
49362 20 32.6243102149 77.3796877331 95.3453336193
49363 21 31.6070638855 80.4796933058 96.5911914457
49364 21 33.0026790795 77.9034175904 93.9174471624
49365 22 31.661317023 78.5723213607 4.6000952074
49366 22 29.6510511963 79.4390620033 3.6562973369
49367 22 33.6983352589 77.8737654445 96.2089874455
49368 22 32.4749270068 75.9595650873 95.2730272825
49369 23 31.1771545402 78.1011609229 95.72706992
49370 24 28.2069823381 80.5487257464 3.9497076589
49371 20 96.4098175944 34.9860054172 68.2119364228
49372 20 95.6769325377 35.7506940372 70.8452714725
49373 21 95.4435505063 34.2864205622 67.2128368325
49374 21 94.3029250589 36.5736580102 70.7685687608
49375 22 4.1395824156 34.2740732964 68.1306502563
49376 22 96.4873621651 36.3307349097 67.8090601064
49377 22 95.6546700434 35.0002234808 72.044920592
49378 22 96.6885664736 36.7986214513 70.9362857878
49379 23 95.6990079523 34.8042574063 69.6079257764
49380 24 95.0882859951 34.8491565547 73.8935494847
49381 20 48.7500264184 50.581350431 72.8788287324
49382 20 50.0009353989 51.4367727466 75.1736429117
49383 21 47.3909853223 51.2570826134 73.3836635315
49384 21 48.7804268834 52.387138053 75.556595231
49385 22 48.6684596322 49.2518679409 73.2372735999
49386 22 48.7229933895 50.7926570478 71.4681536157
49387 22 49.8597837013 50.1784741146 75.8151394935
49388 22 51.1382869501 52.1480500881 75.5154376784
49389 23 49.8968254987 51.3160127456 73.6224708767
49390 24 44.7211697145 45.459386545 73.7512753085
49391 20 38.982684398 27.6131911014 43.5226430737
49392 20 39.7824504777 26.7100634406 45.9916285326
49393 21 39.5806849299 26.5536647406 42.5426256215
49394 21 38.4714888863 27.2369736543 46.6774630234
49395 22 39.0028890148 28.8626969835 42.8342830059
49396 22 37.7020297317 27.1553133283 43.928232047
49397 22 39.5134297473 25.3695432432 45.6125113488
49398 22 40.7467532281 26.9215571373 47.0060686652
49399 23 39.9623276907 27.6713729144 44.7148090019
49400 24 42.040784099 28.3725479475 44.5932071418
49401 20 91.3737233296 56.4347027353 29.036026404
49402 20 91.6715543469 54.3068572639 27.2566170317
49403 21 89.9738053006 55.878795155 29.4552722016
49404 21 93.0944831895 53.8362580654 27.6709987548
49405 22 91.1930977975 57.8559478598 28.893565148
49406 22 92.2686194798 55.98739497 30.0714194726
49407 22 90.8349335496 53.3933466751 27.9308525758
49408 22 91.5211422 54.1604673324 25.845941915
49409 23 91.6382541452 55.8322122886 27.6428432472
49410 24 87.7720633142 60.7699961265 25.3009785021
49411 20 17.6913211788 25.4049948624 30.6082449148
49412 20 17.6805640912 26.3522733523 28.0064328088
49413 21 16.3334961014 25.686082239 31.3639537052
49414 21 16.1593248218 26.3719167297 27.7633226286
49415 22 18.7632883453 25.4735596035 31.565719253
49416 22 17.6163957251 24.1102156724 30.007625266
49417 22 18.1401255824 27.4198441439 27.2333255985
49418 22 18.1514439094 25.1733900889 27.3626912696
49419 23 17.8826102587 26.5311216265 29.555734046
49420 24 18.8438261926 23.2317825432 28.8319223589
49421 20 43.5625846078 30.0875083341 46.6277933405
49422 20 44.5034088451 28.564211187 48.8358024997
49423 21 42.4867823057 31.1426383199 47.0098102609
49424 21 45.2331135454 27.4976693343 48.042958372
49425 22 42.7737626955 29.0059065587 46.1804855752
49426 22 44.3836777829 30.7773650402 45.6536689015
49427 22 45.4322599763 28.8433342258 49.8971996583
49428 22 43.2574574789 27.9518055117 49.1500029981
49429 23 44.3969604476 29.8446787735 47.9191115545
49430 24 38.8984984949 26.3171023528 53.4253373183
49431 20 90.2539572782 17.0430897248 59.2063832858
49432 20 91.2020776271 14.5759750638 60.2574910563
49433 21 91.5322734472 18.0116017703 59.4378945194
49434 21 92.645585246 14.967720133 60.4528958914
49435 22 89.1690816066 17.9531393376 59.4523932027
49436 22 90.4733083258 16.4944782561 57.9190872872
49437 22 90.8976988174 13.6752794403 61.3166432575
49438 22 91.1038607402 13.9611373513 58.9484002627
49439 23 90.4014696884 15.9471763459 60.3600107783
49440 24 96.7442227096 15.1139229848 55.8081725363
49441 20 64.1932755672 26.5513262433 71.4743272486
49442 20 64.896508478 28.9798089287 70.240910228
49443 21 65.3511123549 26.0549100345 72.3467738247
49444 21 65.5720535806 29.4911915203 71.5284868463
49445 22 63.7091130844 25.3138870073 70.9780981197
49446 22 63.3136264195 27.1634512989 72.4183318423
49447 22 65.7523049532 29.4063508379 69.179793689
49448 22 63.6138894739 29.6446904836 70.1786126597
49449 23 64.8693819092 27.4616564757 70.4540876427
49450 24 61.6356142904 27.9275786796 72.9572151622
49451 20 32.6099986113 53.5457231598 54.7639867179
49452 20 35.2512845519 52.9006720621 54.0623439853
49453 21 31.814254747 52.5086463732 53.9265240616
49454 21 35.9537691435 53.5825778774 55.2391693711
49455 22 31.7675783407 54.6758721393 54.7044018064
49456 22 32.7302909129 52.9291081893 56.0327618178
49457 22 34.9377388327 51.5714701916 54.4203211533
49458 22 36.1843449782 53.0840102511 52.9532414816
49459 23 33.9015039052 53.6872490169 53.8871437669
49460 24 35.4870986205 44.8849580661 57.4449335728
49461 20 46.2955396428 62.2230448144 27.6296541224
49462 20 47.9179890758 61.1179645261 25.5212649486
49463 21 45.1140372625 63.1581631184 27.2599844678
49464 21 48.7637767826 60.1053016514 26.3862283333
49465 22 47.4452384598 63.022904434 28.0178446757
49466 22 45.7488925119 61.4939948934 28.7081690813
49467 22 47.7531717855 60.3160470289 24.3681986955
49468 22 48.8244841727 62.1907735516 25.3511158844
49469 23 46.6164750135 61.3889495943 26.3045680072
49470 24 50.158175958 62.7712821236 24.3681051556
49471 20 50.5472083703 46.1043441029 75.4642713572
49472 20 48.5815610722 45.0864429942 73.6530584215
49473 21 51.2594211107 46.3757968705 74.1102814153
49474 21 49.1794680642 43.8287991414 72.7545142155
49475 22 51.5335865352 45.5779015887 76.2935960429
49476 22 49.9527623543 47.2692899223 75.9418860476
49477 22 47.1885649952 44.7649463842 73.8325614749
49478 22 48.8162526622 46.2210818885 72.7807989252
49479 23 49.4422216218 45.0344348141 75.0397873257
49480 24 48.7440398653 44.0311259286 76.4704799794
49481 20 81.5618563205 81.0674979894 69.0723163527
49482 20 80.7299125179 81.4584011996 66.4209281038
49483 21 82.6889184836 82.1434873712 69.3007407699
49484 21 81.7206870577 82.5793832696 65.8661430022
49485 22 81.8602485771 79.9121867789 69.8595480868
49486 22 80.3932624453 81.7676440837 69.4621906241
49487 22 80.434326458 80.6339405883 65.2764675207
49488 22 79.5445750019 82.1101871695 66.9049970467
49489 23 81.4980621139 80.7215874674 67.5168414827
49490 24 59.3962692673 32.7906241435 62.2311827851
49491 20 52.7925399465 61.6497388142 25.9377980893
49492 20 51.610289247 61.2940066035 28.4760966084
49493 21 53.3497570853 60.3630040549 25.2225920723
49494 21 52.2700261078 61.9242783982 29.6798614832
49495 22 53.8344808075 62.577093307 25.6974941058
49496 22 51.5318092773 61.814088405 25.3232409965
49497 22 50.7413971868 62.3575551797 28.0634921432
49498 22 51.0004091488 60.0734045481 28.9324777432
49499 23 52.7635425799 61.1437815364 27.4018844845
49500 24 51.7394678383 70.0581332783 22.702720912
49501 20 48.614767734 11.5034608655 22.4328583226
49502 20 46.9526573867 9.6460859928 23.6171668997
49503 21 50.0637006667 11.6666505617 22.966035709
49504 21 45.7859343093 10.4200257082 22.9611716346
49505 22 47.857001066 12.4448931121 23.1626565628
49506 22 48.7606899661 11.6270364173 21.0182545304
49507 22 46.5993572132 8.2883825172 23.4091341791
49508 22 47.0971765204 10.0167004003 25.0144658118
49509 23 48.2121720373 10.0179631889 22.7729693712
49510 24 48.2903713873 11.2009902695 25.9284441001
49511 20 24.1782191741 51.4715695866 25.3412941957
49512 20 26.9855384236 51.5869042739 25.2137057825
49513 21 23.4194235673 50.1426483358 25.6679354998
49514 21 27.5141323554 52.5637413698 24.1492218075
49515 22 23.2918351541 51.8749136024 24.3044044889
49516 22 24.1260239142 52.3872315929 26.4747170714
49517 22 27.0354887261 52.2240044807 26.4608731674
49518 22 27.8567689811 50.4704121187 25.1292392597
49519 23 25.5820658787 51.0625196373 24.7724781103
49520 24 26.5446849109 56.9178362794 27.5108584591
49521 20 5.0075736865 24.686702029 61.742904547
49522 20 7.4374875323 25.257669532 62.9904460914
49523 21 5.6352076563 24.3913965888 60.3106217151
49524 21 7.122304865 24.8301922239 64.4721179863
49525 22 3.7681785314 25.2195052559 61.4676166437
49526 22 4.7830405289 23.4309289741 62.3866460862
49527 22 8.0657949893 24.1435158741 62.3410921586
49528 22 8.3081287885 26.4066200298 63.103722901
49529 23 5.9747294036 25.6411830906 62.4814019971
49530 24 12.2380670561 26.941761754 58.0781051042
49531 20 4.9068686384 19.3824288928 63.5283940123
49532 20 7.245740107 20.7769216081 64.3113229114
49533 21 4.4631247431 18.1988686348 64.4574322232
49534 21 7.9375050269 20.0495554051 65.448300303
49535 22 4.5632217819 18.7854572998 62.2694406011
49536 22 4.1674077273 20.5026626437 63.9522232646
49537 22 8.2254956475 21.2951326118 63.4457047475
49538 22 6.3731532211 21.763393313 64.8879963478
49539 23 6.5083651355 19.6095437515 63.6396129443
49540 24 96.2412587083 26.3885668306 62.5168536163
49541 20 96.452752405 85.8100640719 82.7224993049
49542 20 94.3545590794 86.8582721057 84.1612363893
49543 21 95.9900105575 84.8077841253 81.6317306201
49544 21 94.9853921135 87.9050770411 85.0876554832
49545 22 96.724766412 84.9441652884 83.8307599496
49546 22 4.0257976843 86.4537120713 82.2148583091
49547 22 93.0420073099 87.3973425054 83.928602677
49548 22 94.3391249972 85.6227036675 84.9300407646
49549 23 95.2394464612 86.723294041 82.8553259521
49550 24 91.6244102411 87.8025573191 82.9321222037
49551 20 46.4833677467 47.850920973 76.1206407819
49552 20 46.0044434978 45.1219881533 76.5690710259
49553 21 45.042292165 48.2077756624 76.4979807077
49554 21 45.2624850716 44.9103073769 77.9292346007
49555 22 46.4557734785 47.8073313832 74.6672179344
49556 22 47.3000645469 48.9073605173 76.5979748526
49557 22 44.9677408708 45.1303132037 75.5527600954
49558 22 46.9088807171 43.9780888096 76.6062063632
49559 23 46.7658582216 46.4825258877 76.7584893079
49560 24 42.147606656 47.7983515535 71.3621729177
49561 20 38.7867183235 57.2484997988 49.4532593291
49562 20 40.9204568082 55.3338317421 49.3509266869
49563 21 37.8116584856 56.9735860552 48.2166619521
49564 21 41.530617526 54.9582690743 50.7598245456
49565 22 39.6705767665 58.3315982125 49.1012687142
49566 22 37.9322314068 57.4710312028 50.5183045435
49567 22 40.9295301777 54.1281025296 48.5471383918
49568 22 41.7888811688 56.3772692414 48.9661035697
49569 23 39.4204510943 55.7918030551 49.6739199352
49570 24 41.011003424 59.5937319801 48.6076587022
49571 20 60.3201627842 19.0330573949 83.538447786
49572 20 57.9789528183 19.8931567051 84.719388927
49573 21 59.7739833527 18.9803008956 82.0748290902
49574 21 57.1965851586 20.1159687287 83.3606284506
49575 22 61.3300194621 18.0246973552 83.618330854
49576 22 60.7192975049 20.345983324 83.7026102971
49577 22 57.0203560014 19.3608211777 85.6085791438
49578 22 58.5374795156 21.1643638423 85.1418150809
49579 23 59.0928258565 18.7683394995 84.5062115123
49580 24 69.8773206664 21.5216862311 81.89251984
49581 20 82.1308594857 16.2812073015 35.3606326861
49582 20 81.8430372369 17.4250131053 32.8619950814
49583 21 82.9546653178 17.4251066452 36.0509570917
49584 21 81.4401609206 18.8404587565 32.8413227651
49585 22 83.1580210437 15.3870594705 34.852336911
49586 22 81.1988279983 15.7158521921 36.2903256762
49587 22 83.2544606728 17.4734667695 32.7381482639
49588 22 81.0332623888 16.8646156102 31.8206154597
49589 23 81.32763243 16.9815404756 34.281369408
49590 24 80.5117774889 14.7103918891 37.7725588106
49591 20 82.8419497475 50.6836830732 79.7965714719
49592 20 81.9659486555 51.1785091038 77.1035579709
49593 21 83.7648143255 51.9558256093 80.3015933507
49594 21 82.6166121468 52.4789006874 76.4709476788
49595 22 83.4974773131 49.4999357354 80.2441598568
49596 22 81.55362481 50.9063080171 80.3309648769
49597 22 81.8424759976 50.2316983134 76.0464636473
49598 22 80.7483398767 51.5605260242 77.6875275189
49599 23 82.9411955733 50.7700203939 78.2280945568
49600 24 79.5825521982 51.2769130706 79.0963318377
49601 20 93.3927819062 91.4523903791 13.9628210694
49602 20 91.5590258564 89.6046968853 15.117196881
49603 21 93.9744129569 90.7363425031 12.7267849317
49604 21 91.290846985 89.8223642148 16.620570031
49605 22 94.381030869 92.2666551421 14.5483807956
49606 22 92.2593590305 92.1820015395 13.5235577349
49607 22 90.5108178226 90.2864156208 14.462791794
49608 22 91.64274406 88.1851354788 14.9753904042
49609 23 92.9807386804 90.2272984088 14.8643585519
49610 24 16.6386232302 78.5248030954 10.3848921246
49611 20 12.2275999422 88.3764245587 15.8989097614
49612 20 12.0994035197 90.691256275 14.2568169511
49613 21 13.3326428146 87.4841475255 15.1701404601
49614 21 11.076339009 91.7658425584 14.6469718421
49615 22 11.3565377565 87.4428028931 16.451075746
49616 22 12.9629731599 89.141767958 16.8728471207
49617 22 13.317489352 91.0726184161 14.8794184746
49618 22 12.0460390111 90.7210019607 12.8109708349
49619 23 11.5679098513 89.2378334275 14.7491174046
49620 24 34.990495332 22.2680410322 51.6764219509
49621 20 70.2707494536 30.4004928139 61.6734044069
49622 20 67.6466748533 29.394938971 61.3597651479
49623 21 70.8825938896 30.9719280163 60.408090283
49624 21 67.0401621912 29.721673815 59.9496512705
49625 22 71.3658209735 29.8541263026 62.3655996104
49626 22 69.740378264 31.5945295399 62.2963800901
49627 22 67.101150201 28.106239874 61.630750216
49628 22 67.1963738114 30.5032931556 62.1954505462
49629 23 69.2523806455 29.3477013254 61.1503293289
49630 24 62.0173505911 25.0575877022 69.3590161228
49631 20 40.9208309677 4.9948990311 66.6778821881
49632 20 41.8544526334 6.1497051262 69.1157188628
49633 21 39.3044616278 4.8040028188 66.802196705
49634 21 40.6609771468 5.6560202823 70.1212727056
49635 22 41.5118160077 3.7223280823 67.1094752514
49636 22 41.2154816287 5.4033503251 65.3493350969
49637 22 42.8354054846 5.1747668901 69.3490073543
49638 22 42.1395622253 7.4427257663 69.5616235297
49639 23 41.2157622483 6.1677957414 67.6699662865
49640 24 45.0176911733 96.2507062375 66.1047632676
49641 20 81.5607338418 47.2246713937 28.9687712214
49642 20 82.5648845863 48.541806618 26.6917296217
49643 21 80.1697956424 47.7918973009 28.7245385625
49644 21 81.5615757008 49.6951534908 26.5865907827
49645 22 81.647445322 47.2100791705 30.4046085692
49646 22 81.6012366152 45.9302663632 28.3058540043
49647 22 83.7985822266 49.1184800544 26.2862341883
49648 22 82.0996171617 47.4612337814 25.8913087628
49649 23 82.5655393655 48.2450045395 28.2831238104
49650 24 85.6386054492 48.6637826376 26.3124253582
49651 20 85.2170211544 92.6953484688 69.1566893356
49652 20 83.677448066 94.8780083171 68.2077271276
49653 21 86.7768923994 92.8527761076 69.4453534434
49654 21 82.9293160069 94.4495020702 66.9295044985
49655 22 85.0995350496 91.3461290614 68.6325853187
49656 22 84.6804763318 92.7504434654 70.4563326001
49657 22 82.5368226186 94.7333956435 69.1022491183
49658 22 84.0981905019 96.1782128209 67.9926789151
49659 23 84.8436099041 93.8783474874 68.1553447879
49660 24 84.8266791836 89.4717766983 68.9814891172
49661 20 36.319229503 74.0252536532 80.6649022927
49662 20 33.8335939433 74.9715967442 80.0953378881
49663 21 36.639042395 75.0760808039 81.8497721092
49664 21 33.3744066117 75.8776241416 81.2982609038
49665 22 36.8599836207 74.660670142 79.5006112525
49666 22 36.9419245664 72.7952976085 80.9882697006
49667 22 34.4266368609 75.8596644822 79.1226165474
49668 22 32.6041055981 74.3442246861 79.7767410147
49669 23 34.8028543079 73.8848502747 80.6623767156
49670 24 31.8041524387 73.0635700198 78.7848439961