ITEM: TIMESTEP
10250000
ITEM: NUMBER OF ATOMS
4000
ITEM: BOX BOUNDS pp pp pp
3.23005382 96.76994618
3.23005382 96.76994618
3.23005382 96.76994618
ITEM: ATOMS id type x y z
49081 20 26.4789263666 25.7196630603 12.2289095007
49082 20 26.0600547286 27.0958219567 14.7248905724
49083 21 27.3411770944 24.4801659467 12.5811339653
49084 21 24.9062401564 28.0186865347 14.3121925673
49085 22 26.8282043247 26.117114063 10.8922525008
49086 22 25.1092217228 25.2864798188 12.3945218801
49087 22 25.5406277063 25.966701916 15.4530050946
49088 22 26.8585112498 28.0078359072 15.4905145914
49089 23 26.7282101797 26.8570146115 13.3232888253
49090 24 20.6217389267 24.6153310911 19.8957758221
49091 20 46.970617046 56.808675225 51.0135047337
49092 20 44.2754521274 56.1258340107 50.3692019551
49093 21 47.2280388298 57.9212387047 52.0754631317
49094 21 44.8071328756 55.6214669111 49.0292429971
49095 22 47.1081206878 57.5027412263 49.7556738011
49096 22 47.9818768223 55.8332412274 51.2387487945
49097 22 43.4004799743 55.1446005399 50.768149596
49098 22 43.6960660342 57.4197713418 50.0347968399
49099 23 45.5188779166 56.2459392325 51.349593567
49100 24 43.3014212283 53.3447059311 50.5784506943
49101 20 8.9714388732 43.883052279 64.8865932494
49102 20 8.8760655989 42.3219650154 67.2474465927
49103 21 10.4731657211 44.3721723761 64.7388937594
49104 21 10.3926278737 42.2460106228 67.5714687798
49105 22 8.2548110498 44.9673667112 64.3176836241
49106 22 8.7655295081 42.7383110763 64.135280834
49107 22 8.2832004071 42.3408600737 68.5239855037
49108 22 8.5917136801 41.1899452381 66.4567538825
49109 23 8.6279790964 43.6463028114 66.4145673911
49110 24 3.9655841848 48.0911314166 69.5391739555
49111 20 83.4334960267 84.2934082572 93.5136354471
49112 20 80.9889244798 84.9085265894 94.7428431726
49113 21 83.1683104319 82.801540514 93.7820013983
49114 21 79.7520464831 84.0968809434 94.1523258322
49115 22 84.2394357393 84.6760799569 94.5784000419
49116 22 84.0095146839 84.3383074055 92.2391544137
49117 22 81.4309940111 84.1375707965 95.8489523998
49118 22 80.5341335232 86.1965709072 95.1289758483
49119 23 81.9996230168 84.9553900754 93.5471227286
49120 24 85.3721102959 84.5182781584 95.9729862971
49121 20 51.4813912753 56.5876404593 50.4242969517
49122 20 50.5644197105 57.4949774152 47.9547502535
49123 21 52.7082605035 56.0807477826 49.6322946831
49124 21 50.722969828 56.1776551111 47.1326281396
49125 22 51.0772054004 55.4783508758 51.1424027054
49126 22 51.9611573832 57.660262405 51.2623208474
49127 22 49.3559778411 58.1503179011 47.464227058
49128 22 51.809248598 58.1885757171 47.7939551786
49129 23 50.3539549527 56.8786430645 49.3466238518
49130 24 42.807249977 58.2345038042 48.7973576039
49131 20 89.0438316907 20.4035103578 29.6352429545
49132 20 91.3798034226 19.4084329829 28.3102503792
49133 21 89.6337877918 21.7373892229 30.1331558015
49134 21 91.1677484866 18.0363898418 27.5062750044
49135 22 88.1508063383 19.8314203762 30.6145120876
49136 22 88.4554657678 20.7239780291 28.369554671
49137 22 91.1772895557 20.4309175463 27.3113378687
49138 22 92.6871169582 19.3714847254 28.8432406859
49139 23 90.2736941955 19.4573543466 29.4853920469
49140 24 88.3011249454 22.8970032685 24.0585816518
49141 20 41.6014272245 35.6349851904 12.5541383524
49142 20 39.953441401 36.6354878791 10.6238491337
49143 21 41.4818832421 34.1235676096 12.4043716307
49144 21 39.0647188836 35.2733599665 10.7784331598
49145 22 40.6571420112 35.9113955723 13.5541452797
49146 22 42.9224911243 35.8672447431 12.995057343
49147 22 39.3349556327 37.6143828526 11.4233626556
49148 22 40.0276185356 37.0628716472 9.2586250507
49149 23 41.3492436747 36.1915475499 11.110228512
49150 24 39.5557097786 39.3382295289 11.898414353
49151 20 76.438676416 8.8873652179 29.6841643182
49152 20 79.0457267559 8.0076225303 29.6282274626
49153 21 76.3381210317 10.0742929121 28.6990957118
49154 21 79.1275741617 7.2899470601 31.0025155611
49155 22 76.6335200117 9.5843777258 30.9614515484
49156 22 75.1227572102 8.3465736842 29.6131675399
49157 22 79.8578401014 7.2134033662 28.7806624979
49158 22 79.5084686034 9.3636609958 29.8280286727
49159 23 77.5157882765 7.9806736873 29.1630535779
49160 24 73.9624883854 7.079753568 29.4408670582
49161 20 33.7839242605 40.8974459946 33.6732665678
49162 20 32.0371603105 39.9732718581 31.6748803074
49163 21 35.0164058822 40.1686766933 34.3374933434
49164 21 33.1541201652 39.7528918717 30.6284495316
49165 22 33.1233455406 41.4464316229 34.8370899085
49166 22 34.3974524144 41.8881269946 32.8046551273
49167 22 31.1848248113 38.898404955 31.4678765256
49168 22 31.5138981527 41.2701089258 31.4400951776
49169 23 32.8717232302 39.8413806099 33.0027726194
49170 24 91.9093327533 31.8173415635 21.704276101
49171 20 7.6699809348 95.0053161106 38.4962769578
49172 20 10.2721859083 94.1536353907 37.6220531238
49173 21 7.8163147424 96.4427436365 39.1762184353
49174 21 11.1100414322 95.0543310142 38.6033801345
49175 22 7.7381341004 94.1091104019 39.562351111
49176 22 6.4540091041 95.1618083505 37.7932311268
49177 22 10.1322315214 92.8398676025 38.2593404104
49178 22 11.1090499093 94.2206099536 36.4352189695
49179 23 8.9000959973 94.9333839334 37.4443273283
49180 24 7.8165205302 93.9782480925 41.3765573233
49181 20 9.8783642535 33.768677258 57.9757724619
49182 20 8.1794646665 35.4056253743 59.5777366585
49183 21 10.0914387743 32.2838250067 58.4694760138
49184 21 7.5289508391 34.7021118439 60.9136734012
49185 22 11.0270715477 34.4292559778 58.5299027843
49186 22 9.9592762604 33.7175109369 56.5187950985
49187 22 9.2747139122 36.1304660002 60.0922996064
49188 22 7.1480002735 36.1864963957 59.0846878859
49189 23 8.4612255303 34.194470848 58.5888329165
49190 24 11.1008090448 36.0152248528 65.5184552223
49191 20 93.0400429721 90.7503734869 6.727809723
49192 20 92.0645154347 91.3653047393 9.4210477198
49193 21 94.581767478 90.5075439264 6.3547539243
49194 21 91.1945008958 92.6323961212 9.4933259946
49195 22 92.6305253234 91.5607095744 5.6158448986
49196 22 92.4074326801 89.4667255441 6.8960879893
49197 22 91.1963716937 90.2479707251 9.2898018968
49198 22 92.8212531639 91.3396748088 10.6042899422
49199 23 93.0177804777 91.584562247 8.1383164679
49200 24 94.544351521 91.5087013943 11.4677379806
49201 20 54.1270735908 86.7039312833 79.2189626366
49202 20 52.5391403781 86.665954087 81.4917014012
49203 21 53.1182458517 85.9912508434 78.2613012186
49204 21 52.8925340914 87.9702743461 82.2247735377
49205 22 55.4667519292 86.4066615054 78.7574368077
49206 22 53.8378482436 88.1506192586 79.1726603899
49207 22 51.3143290275 86.8611718424 80.7919294665
49208 22 52.2554338846 85.8183891224 82.5647910464
49209 23 53.7646065079 86.1695378783 80.6558289231
49210 24 53.1244194846 85.4255215744 84.1559981553
49211 20 46.155510424 85.2229141676 80.7524556319
49212 20 48.0980533686 87.279482241 80.9019323799
49213 21 45.006653466 85.6976291213 81.6276148648
49214 21 47.4461738588 88.4581784246 81.5713973895
49215 22 46.8231981757 84.2535602631 81.5420258633
49216 22 45.4078460644 84.6804763318 79.6523329579
49217 22 48.7745338702 86.6195583004 81.9388220867
49218 22 48.9801345536 87.9034868629 79.9402487466
49219 23 46.9368491449 86.4581084462 80.307486364
49220 24 48.3658580805 82.8629026833 81.4642942128
49221 20 81.1461650389 89.1231535194 67.309744161
49222 20 80.3811022593 87.9618557558 69.7884577686
49223 21 81.7893453387 87.9412769795 66.5544095302
49224 21 80.0868257579 89.1165121871 70.8839969879
49225 22 81.9522918312 90.2663980839 66.9707555911
49226 22 79.7674805654 89.1947115371 66.8524276272
49227 22 79.0707019072 87.6793652809 69.2213254012
49228 22 81.0340107079 86.8392835076 70.4292060313
49229 23 81.3876850409 88.7026917033 68.7885163193
49230 24 78.5788691532 87.9711162051 67.4617464861
49231 20 89.3034984319 88.2873745812 95.2763011788
49232 20 90.6054801937 89.4191137389 93.2355413471
49233 21 89.7592247875 89.2484034353 96.4702443648
49234 21 90.8662694136 88.1166642776 92.4067779008
49235 22 90.1637848219 87.1869712875 95.3330798934
49236 22 88.0057259653 87.7646736627 95.6009781451
49237 22 90.4544132675 90.4918292244 92.2558980545
49238 22 91.6921331232 89.5070412377 94.082919232
49239 23 89.2724431876 89.1053809399 93.9383065584
49240 24 81.9697837911 78.1809504511 18.4995058488
49241 20 16.931683713 91.3636210212 42.8479398301
49242 20 14.4113448532 91.6390960042 44.0005383838
49243 21 17.0720870914 90.0203881669 42.0811933325
49244 21 13.6618096958 90.2519929404 43.9023214968
49245 22 17.54259275 91.1787861939 44.1473960148
49246 22 17.6291171504 92.3236209365 41.9740901557
49247 22 15.1134552853 91.7325423567 45.2571532978
49248 22 13.3445223809 92.5544773909 43.8085009848
49249 23 15.374431585 91.7085026044 42.8073435169
49250 24 12.3501559091 94.0558862031 44.4559841197
49251 20 62.818706849 84.7876730484 69.715122493
49252 20 61.0098324105 84.593390692 71.8532573526
49253 21 61.9416768182 84.1030545763 68.6125677818
49254 21 62.140916789 84.583007764 72.9125966336
49255 22 63.7027523717 83.7488190039 70.2002203748
49256 22 63.3925740886 85.8474800289 68.9509015724
49257 22 59.8574209367 85.2268428431 72.4081359941
49258 22 60.6816009282 83.2065682479 71.5630030666
49259 23 61.6779878617 85.3133672435 70.6708195733
49260 24 58.9677630204 82.519050039 71.5168878997
49261 20 39.7141663563 57.124091742 54.7726859279
49262 20 36.9581069678 57.286570535 54.660438057
49263 21 40.2053443311 56.0064771081 53.8403738207
49264 21 36.5904016509 55.9558720263 54.0279213049
49265 22 39.6455080753 56.5103765082 56.0419287273
49266 22 40.7352478213 58.0940068859 54.6527677859
49267 22 36.8212581053 56.9894878369 56.0784092853
49268 22 36.0052160843 58.1262781488 54.157286976
49269 23 38.3836549274 57.5578362229 54.1456880294
49270 24 38.8535058067 57.8523933439 60.7794436557
49271 20 94.3536236805 42.6517866759 72.7047509927
49272 20 94.3286485293 40.1321961353 71.311474296
49273 21 95.575067595 42.6827483802 73.6679312644
49274 21 94.8347928868 38.7786738928 71.8982500408
49275 22 93.3215980481 43.3673668524 73.406674345
49276 22 94.7573418559 43.3542712675 71.5096853279
49277 22 93.1217032981 39.8590596496 70.6518309751
49278 22 95.4147402195 40.6955869069 70.5509949711
49279 23 94.0669239104 41.0814389629 72.5681827499
49280 24 96.2435972057 44.4668347472 71.0365605524
49281 20 91.7682745956 49.8582870631 25.0082921789
49282 20 91.9552608404 50.7401811682 27.7104725894
49283 21 90.6613235094 49.0945338419 24.3203062706
49284 21 91.5518232847 49.5692487957 28.6907706613
49285 22 92.8908468438 49.0088513005 25.0821886939
49286 22 91.8378682755 50.9281963519 24.0877660982
49287 22 93.3819312787 50.6973398975 27.5712852296
49288 22 91.3909346698 51.8923120224 28.3879820298
49289 23 91.2346295097 50.3035369507 26.4104551654
49290 24 94.5964532411 52.1265359129 27.681288143
49291 20 29.6250471062 27.9102737995 52.7131245779
49292 20 29.5960497396 28.7898294074 50.0853083818
49293 21 28.3144596744 28.486011837 53.3806252498
49294 21 31.0511563052 28.6417557578 49.6878573792
49295 22 30.6633399114 28.8023637529 53.073627323
49296 22 29.7729336761 26.5622704107 53.2778249081
49297 22 28.9058188739 28.3795634395 48.892861834
49298 22 29.5030710866 30.1790838887 50.5012802831
49299 23 29.3936294125 27.6750209702 51.1758899868
49300 24 32.4230123665 29.3205747566 53.3423674338
49301 20 65.5107849511 19.4288246794 64.6407704123
49302 20 64.0723284864 21.7255096565 63.5302648102
49303 21 64.6721062762 18.8162319244 65.7862599341
49304 21 64.9563740091 22.7893388524 62.8687506914
49305 22 66.8617816165 19.3369685051 65.1167013846
49306 22 65.0805014463 18.5869656482 63.5281133926
49307 22 63.5249330363 20.8767286733 62.4677451729
49308 22 62.9592037673 22.3762666877 64.2733457151
49309 23 64.9884581922 20.9528701457 64.5359121929
49310 24 64.120501531 20.6839429551 60.5191221352
49311 20 64.4626704572 18.2670592163 85.8503797655
49312 20 65.8974788661 19.4583832854 83.6678134571
49313 21 65.510878491 17.4250131053 86.7298418335
49314 21 64.6255234098 19.3945890788 82.6334493274
49315 22 63.6549534867 17.336617907 85.0484622683
49316 22 63.6456930373 18.8354076023 86.7991548937
49317 22 66.4430035184 20.7593361084 83.3819555461
49318 22 66.6827462625 18.384638861 83.2803712229
49319 23 65.3484932379 19.3936536799 85.1502336712
49320 24 63.4792855688 16.0192956029 83.9899648464
49321 20 84.869707534 84.2874217041 88.6008267605
49322 20 84.2234404177 82.1618211901 86.89802656
49323 21 84.5861881203 85.5694794688 87.7358633758
49324 21 84.6683161458 80.8119470035 87.4904146983
49325 22 85.9669304714 84.5484915437 89.4739281158
49326 22 83.6220724497 84.0633936619 89.3020953335
49327 22 82.8324086784 82.2669600291 87.0696722625
49328 22 84.5593421712 82.0197340936 85.5379565251
49329 23 85.2009322929 83.1782256605 87.6084620424
49330 24 88.7118586127 79.8005936873 35.5437837953
49331 20 21.7428145366 43.1069517921 77.7487961483
49332 20 22.1546706827 45.6527335026 76.5287553323
49333 21 20.7786053262 42.4710676038 76.7455808028
49334 21 23.6253984103 45.6517981036 76.9718538024
49335 22 21.2474272667 42.6670336783 78.9861418445
49336 22 23.0722034869 42.6755458085 77.4394597243
49337 22 22.1435394355 45.1476180838 75.2188226797
49338 22 21.8401895646 47.0829584567 76.6694393304
49339 23 21.4651881361 44.7253790097 77.6327131419
49340 24 48.7180357752 66.9092998818 67.9581626948
49341 20 88.4160854731 20.3319523402 22.1391430606
49342 20 88.4461117785 19.357921441 24.8666727819
49343 21 89.9657608698 20.4533671205 21.8787280002
49344 21 89.9208617215 19.3118062741 25.195933203
49345 22 87.9699937264 21.6840714842 22.5229372389
49346 22 87.7860007581 19.8327299346 20.9315430502
49347 22 88.0185409306 20.5835746506 25.345409951
49348 22 87.8355769011 18.1572433827 25.4332439099
49349 23 88.3999966116 19.2196694801 23.2813586862
49350 24 87.7529811761 26.9820774476 24.5047669383
49351 20 52.1014672217 81.7935546339 26.8897535738
49352 20 54.2590583789 80.1755015758 27.8227204602
49353 21 51.090581605 81.0299884926 26.0314315216
49354 21 55.5006133702 81.0796581754 28.1165292622
49355 22 52.2023032257 83.0782315156 26.313454297
49356 22 51.5897104706 81.7237738742 28.2050180003
49357 22 53.5984796591 79.9206989091 29.0561374809
49358 22 54.7278803194 78.979594052 27.2036734526
49359 23 53.4450742356 80.9877084612 26.8017325351
49360 24 49.0132476755 72.6519944934 27.4121738727
49361 20 28.9307004853 82.8886261537 3.6832630171
49362 20 27.3973945697 85.2106604417 96.6070932274
49363 21 29.1551962269 81.9777346819 95.9249067924
49364 21 27.1938517639 85.3734198544 95.0609723465
49365 22 28.8406215689 81.9333032331 4.6661811414
49366 22 30.1998497448 83.5828792348 3.6530842416
49367 22 26.1947521736 85.6982839006 3.6608078305
49368 22 28.5313786848 86.0621540818 3.356190494
49369 23 27.5887771895 83.6642589412 3.3802040552
49370 24 30.3101332779 85.5612479583 3.5877148232
49371 20 5.3537648282 41.5240697336 64.8723751858
49372 20 4.4002752894 42.2112137828 67.4562276324
49373 21 4.3272486954 41.0743299311 63.7815129611
49374 21 3.2388956783 43.1936632723 67.1531583812
49375 22 6.4555899282 40.5930671849 64.804371684
49376 22 5.7290749383 42.8522426652 64.553217073
49377 22 3.9061208752 41.5626081692 68.6540059541
49378 22 5.558972644 43.0350196149 67.6482650314
49379 23 4.4880063544 41.3084602817 66.1531233919
49380 24 3.5732479435 40.427875735 70.2484869593
49381 20 47.8658873558 59.5383563638 83.897360353
49382 20 47.9798189447 61.1199288638 86.1031245547
49383 21 46.8819412281 60.5164094783 83.286451316
49384 21 47.5891963542 62.5538954137 85.6771438849
49385 22 47.0264603617 58.4668568968 84.3941507213
49386 22 48.6522772309 59.1507270499 82.7735720861
49387 22 46.7967263861 60.5964796262 86.5839196014
49388 22 48.9073605173 61.4251495326 87.1542323251
49389 23 48.6751945045 60.4075290436 84.9226511131
49390 24 43.3933709425 53.7952875926 84.1143729032
49391 20 33.9536991651 25.5734602086 53.2811923442
49392 20 34.1776336674 27.5659534557 51.2992691049
49393 21 34.7657189707 26.3209374884 54.3454892395
49394 21 33.7047895115 27.2958102466 49.8447237787
49395 22 34.4228952652 24.2559508247 53.570698311
49396 22 32.6335706642 25.8595987393 53.6078336483
49397 22 33.1623516757 28.3812471575 51.8976437963
49398 22 35.3778440263 28.2932261188 51.0685997303
49399 23 34.4994108971 26.170057642 51.9400173675
49400 24 35.8149559433 29.5315072139 52.5735630585
49401 20 3.4605492104 50.6202630262 26.8488766409
49402 20 96.0900047024 50.0274071884 24.2102098173
49403 21 4.9811673749 50.6747032436 26.7711449903
49404 21 3.6469854406 50.0554691562 23.1481578795
49405 22 96.5493791138 49.3115463922 27.2981487439
49406 22 96.6408611285 51.6421863503 27.8100925748
49407 22 95.7913318261 48.6460100581 24.4420016706
49408 22 94.9388092471 50.6548727864 23.569180935
49409 23 96.6547985725 50.9668283274 25.3190317013
49410 24 91.159610516 53.4453548553 29.4823052305
49411 20 19.9534899357 23.3984706314 17.6001197838
49412 20 21.178488366 25.6388445933 16.3884040182
49413 21 18.3866031988 23.1895025119 17.452233214
49414 21 20.3947176079 26.0988737839 15.105036695
49415 22 20.2196109294 23.0429255005 18.955606364
49416 22 20.3719874141 22.43510328 16.6299240202
49417 22 21.5736944112 26.8766579889 16.9252294604
49418 22 22.2826332554 24.854419056 15.8831950595
49419 23 20.2528175912 24.9350504432 17.3986348557
49420 24 21.4612594606 21.0667081947 15.7007922694
49421 20 34.7189490245 32.2449124115 50.8260507894
49422 20 32.3623049764 32.1930913111 52.570476242
49423 21 34.4639592779 31.9439945777 49.3396083599
49424 21 32.5288059848 33.2765638843 53.5754688455
49425 22 35.2214453262 30.9977450266 51.2934696315
49426 22 35.6985923172 33.2588848446 50.8476585045
49427 22 30.9414340114 32.1111503654 52.3165154343
49428 22 33.0069819145 31.0494725871 53.1644545585
49429 23 33.3151958598 32.7044739026 51.4377081456
49430 24 29.9039830653 32.0267773825 50.8080911301
49431 20 4.6920168597 15.8235166082 50.6168020502
49432 20 3.6666391074 15.8945133865 53.2477986026
49433 21 3.822342806 16.7356240986 49.7313534291
49434 21 95.9322964439 16.979482598 53.2478921425
49435 22 5.0875409405 14.8264748955 49.6633499274
49436 22 5.7552754621 16.7032592958 50.9659864684
49437 22 3.2604186463 14.907761062 54.1792688507
49438 22 4.7895883214 16.6751973281 53.6488041212
49439 23 3.7856265275 15.3087665805 51.79016646
49440 24 9.6336826031 19.4394882272 51.5093597031
49441 20 61.7952868867 26.9423229934 76.37432097
49442 20 63.4829336246 28.7030243872 74.9235172395
49443 21 62.6341526414 25.8089001176 77.1067383272
49444 21 64.890428385 28.290419922 75.443599041
49445 22 60.6772045533 26.2302037928 75.9373961328
49446 22 61.4896920583 27.9504959532 77.3385301805
49447 22 63.690311566 29.0590372176 73.6006760818
49448 22 63.0730418163 29.8119398112 75.747790771
49449 23 62.6432260109 27.3840183651 75.1249086278
49450 24 61.0506158036 28.8641936218 78.7678197357
49451 20 34.6158680631 52.2267171376 67.4246111488
49452 20 37.3201063512 51.9174742535 67.8586362493
49453 21 34.3866953268 52.2644137142 65.9172157834
49454 21 37.8471101048 52.2926627617 69.2881128844
49455 22 33.7457599844 53.117965232 68.044032316
49456 22 34.4277593396 50.9386728198 67.855455893
49457 22 37.1359263032 50.5054895783 67.9546081789
49458 22 38.4232223018 52.291540283 67.0329596195
49459 23 36.0483379747 52.767751875 67.5996242874
49460 24 38.7091737528 47.2981002092 72.0861716846
49461 20 48.008255072 56.7524577497 23.9304319993
49462 20 49.8994446157 54.6302246718 23.7107067921
49463 21 47.5929379499 57.2994790402 22.5526829247
49464 21 49.8793335388 53.7197073596 24.9207388397
49465 22 49.0642269168 57.6304231794 24.2870996088
49466 22 46.7661388413 56.8205547913 24.7408616267
49467 22 50.2255246805 53.7474887076 22.6180673094
49468 22 50.977585415 55.5332587926 23.9354831534
49469 23 48.4535984995 55.2727501924 23.6823642047
49470 24 51.0740250441 57.3194965771 23.9850592964
49471 20 45.6411345559 58.6457987109 89.9271288943
49472 20 46.2937623849 56.5860502812 88.2909290971
49473 21 47.1582580701 58.5984675254 90.5658192793
49474 21 47.7485883308 56.2913996202 88.6427326323
49475 22 44.6861857948 58.9803909059 90.9462460215
49476 22 45.7240109005 59.5647346135 88.8865911317
49477 22 45.7416899402 55.2691956765 88.0764421239
49478 22 46.4012397212 57.3844132624 87.11522619
49479 23 45.5868814183 57.2441969638 89.4833756449
49480 24 44.241964846 54.1672022046 87.9090992565
49481 20 76.1511347868 88.856751906 65.7833601974
49482 20 77.3588283371 88.1485613809 63.261898859
49483 21 75.2099363899 90.1430189658 65.6744797627
49484 21 78.7049609281 87.468058664 63.4520654602
49485 22 76.8699888596 88.8809787381 67.0540060953
49486 22 75.2075043527 87.7333377987 65.6156431704
49487 22 76.5366126833 86.9989561038 63.154982762
49488 22 77.6660133436 88.7971669946 62.0310074154
49489 23 77.1968172435 89.0542146188 64.5668738973
49490 24 63.1313171693 39.6782470376 70.8920414187
49491 20 52.2410287411 56.6345039454 26.9275436904
49492 20 49.8367728878 56.197766188 28.3617908599
49493 21 52.82424997 55.383501425 26.2169211281
49494 21 49.5948787262 57.2613147641 29.4398381194
49495 22 53.4365621054 57.3507389012 27.3186339803
49496 22 51.4482781534 57.3896514964 26.0330216997
49497 22 49.0751710842 56.6356264241 27.2388444521
49498 22 49.4474598558 54.9445187101 28.9468828866
49499 23 51.4472492146 56.251645166 28.173120897
49500 24 53.4486287515 64.8449679973 22.6789617794
49501 20 45.7882728066 12.1192807468 18.217763693
49502 20 46.5921546415 9.3789173523 18.0244167355
49503 21 46.9869865272 13.1151625648 18.3678016804
49504 21 45.2590240956 9.1443099482 18.8307306077
49505 22 45.3973695964 11.8795941266 19.544814146
49506 22 44.7583050518 12.7083575729 17.4338993951
49507 22 46.5716694051 8.3637756704 17.0186758129
49508 22 47.5532770355 9.2586344047 19.035582972
49509 23 46.3852443996 10.8866868772 17.4891814715
49510 24 48.0098452501 9.8096966185 20.6278190197
49511 20 32.1657776625 41.2228712802 27.1688766127
49512 20 33.015213425 43.1538152782 28.9860761015
49513 21 31.319802876 40.1931841451 27.8794991749
49514 21 33.5545644444 44.3265249087 28.1092331505
49515 22 32.8771485439 40.4208602431 26.2202885642
49516 22 31.2870639137 42.1147741538 26.5014694807
49517 22 31.6688937543 43.55192106 29.1599667614
49518 22 33.8321908449 43.2617603139 30.1238953522
49519 23 33.180404875 41.8552944924 28.192296575
49520 24 28.3505660728 47.3863083277 28.2274675745
49521 20 4.1616119956 31.0055088377 53.9602919627
49522 20 6.756442284 31.8034041195 54.8769829078
49523 21 4.3509891201 31.0819309297 52.4040687735
49524 21 6.8023984332 31.384158322 56.2580058786
49525 22 96.3636088876 31.4862103445 54.1478394469
49526 22 4.2959034775 29.6240181674 54.3395026863
49527 22 7.3594565541 30.7742782238 54.1734693774
49528 22 7.5294185385 33.0038015582 54.8218879112
49529 23 5.2392439379 31.9668183115 54.5999177467
49530 24 12.3842511999 34.3964234756 52.2017419863
49531 20 5.0947528662 26.2130859925 56.0416481076
49532 20 7.443904369 27.4478125717 56.8153165573
49533 21 4.4436871534 25.6546528351 57.2976082423
49534 21 7.5710250827 27.2101277052 58.3723816056
49535 22 5.800586186 25.1059478265 55.4986490325
49536 22 4.0093580482 26.7899465087 55.3153108434
49537 22 8.1238084306 26.3529281316 56.2164741664
49538 22 8.1100300044 28.6934833182 56.6321654481
49539 23 5.9530187946 27.4459417738 56.5085992503
49540 24 95.9696188609 32.9465551441 55.8555037218
49541 20 93.8718932349 86.5800844658 79.8034934239
49542 20 91.1843050476 87.4056675558 79.3149345661
49543 21 93.8637552642 85.4574186777 80.8850016594
49544 21 91.6910106445 89.0208208772 79.1102692816
49545 22 94.219393935 87.7841299603 80.5187929808
49546 22 94.7813816083 86.2008737422 78.8162734
49547 22 90.19156617 87.1757465004 78.3462354409
49548 22 90.6845214027 87.2859364936 80.6679891091
49549 23 92.4475612939 86.4848608554 79.0909065239
49550 24 88.5046677511 86.7231069613 79.2065218309
49551 20 43.2195738225 57.3997538048 86.1925486918
49552 20 41.9681036026 54.8982164634 86.3498827907
49553 21 42.0272208146 58.0296514399 85.3796870272
49554 21 40.3859698632 54.6575383204 86.6640832892
49555 22 44.1594626609 56.8449687032 85.3113093659
49556 22 43.6864314253 58.4908031093 86.9803416652
49557 22 42.06594633 54.9245947131 84.9219963339
49558 22 42.7140842442 53.8649748124 86.9409613706
49559 23 42.4287875725 56.2821391709 86.9424580088
49560 24 45.7742418227 53.8257815975 79.1202780501
49561 20 39.7253911434 55.1728495874 60.063957019
49562 20 42.423081639 54.4280849644 59.9434776376
49563 21 38.8227311821 53.9516862926 59.8938079548
49564 21 43.4967325235 55.524278963 60.2286807694
49565 22 39.848209022 55.6323175387 58.7109960159
49566 22 39.0308574426 55.9689676113 60.9680200786
49567 22 42.9377381268 53.2576202913 60.5066813295
49568 22 42.3781824907 54.4177955762 58.5284996859
49569 23 41.0911671117 54.7970998398 60.680946149
49570 24 38.2009715176 56.106471253 57.1826477146
49571 20 67.2154559495 20.2810666387 79.8681294895
49572 20 64.8054006228 20.7861820575 78.6986002154
49573 21 68.4119247127 20.5050946809 79.0363727667
49574 21 65.2478443137 22.2440948198 78.8624821068
49575 22 67.6332051088 19.2317361262 80.6822071728
49576 22 67.0696272573 21.5029782526 80.6090589769
49577 22 64.2308786039 20.6940452635 77.3787523342
49578 22 63.8662601035 20.6003182914 79.7655162276
49579 23 66.100086273 19.9330046993 78.870152378
49580 24 76.3432657257 19.2872988223 84.4144488779
49581 20 83.1353843898 19.2820605883 34.5470227023
49582 20 83.4535135637 20.2118471184 31.9501682106
49583 21 83.964241376 20.3670297998 35.4273266293
49584 21 83.4998158104 21.7627385337 31.8546639805
49585 22 83.8818327308 18.1243173406 34.3361837849
49586 22 81.9897077882 18.9865680684 35.3497820586
49587 22 84.8367814919 19.8010199111 32.1653099631
49588 22 82.7726366872 19.7822183928 30.7356462482
49589 23 82.6558989016 20.0038143978 33.3343715378
49590 24 80.6329116495 19.3043230827 36.5820766005
49591 20 86.9369391552 56.1929021136 79.9912279879
49592 20 86.9658429819 57.6087219243 77.5459081218
49593 21 87.5826450322 57.0847114473 81.0934085396
49594 21 87.9481989315 58.8719781706 77.6455281072
49595 22 87.247304518 54.8263778261 80.3162791138
49596 22 85.5345890889 56.427126004 79.9903861289
49597 22 87.0845451053 57.1775965604 76.1789161349
49598 22 85.664890159 58.172954555 77.9332568161
49599 23 87.5580440405 56.6771581363 78.6290065355
49600 24 84.3498128123 57.5241618616 79.1552619699
49601 20 92.7015221017 95.9857077224 10.6531551819
49602 20 93.9728227787 94.4073155787 12.5333537883
49603 21 92.188549332 95.2711564847 9.3586285496
49604 21 95.0293558629 95.2151260892 13.3609854019
49605 22 93.0869064582 3.7451078523 10.1910306977
49606 22 91.6274035177 96.0857018674 11.5496789263
49607 22 92.8565177033 94.5682041936 13.3550923887
49608 22 94.5205923884 93.0914899129 12.441544384
49609 23 93.8333547992 95.1075552129 11.1020063554
49610 24 15.4463637622 88.1030074534 15.965323085
49611 20 18.7927534114 90.6576754536 20.5315664705
49612 20 19.9491871006 91.5283447717 18.0554719798
49613 21 19.613472427 90.4590902621 21.8909817261
49614 21 19.5921453315 90.6197917972 16.8976351922
49615 22 18.0101986719 89.495442291 20.3700230764
49616 22 17.9263869283 91.8153251614 20.6244515836
49617 22 18.9751562015 92.5933899861 18.0534141022
49618 22 21.2541621389 92.0229837225 17.8816748598
49619 23 19.8389035675 90.6666552833 19.3702687068
49620 24 26.6023990245 25.0280290962 54.0259569672
49621 20 63.3672247778 30.1385811153 65.2252076597
49622 20 60.8580171652 30.2395106592 66.5397237671
49623 21 62.9133692201 30.8457427015 63.9593322964
49624 21 59.835439062 30.6226500583 65.4453070265
49625 22 64.3007529035 29.0137639097 64.8457163164
49626 22 64.012743575 31.1229014026 65.9937314154
49627 22 60.1420628291 29.2579965686 67.2865462677
49628 22 61.2033664478 31.4982769906 67.1746725564
49629 23 62.0747840851 29.5552663465 65.718537052
49630 24 58.982916483 26.6656319918 75.2688665221
49631 20 45.5177554379 95.350852473 65.1101535921
49632 20 46.5634378946 95.166578885 67.747697937
49633 21 44.0630230319 94.5763421642 65.0927551722
49634 21 45.7215788633 93.8827438624 68.1745204658
49635 22 46.5050690017 94.4231238205 64.6031673755
49636 22 45.2319910667 96.3815685469 64.2016006176
49637 22 47.8271618404 94.7082334125 67.276724579
49638 22 46.5635314345 95.950443183 68.9236814638
49639 23 45.7186791267 95.8682216176 66.6175489575
49640 24 47.8873079911 93.631963411 63.5818052909
49641 20 89.2724431876 42.7282087679 21.5144836594
49642 20 88.1734429923 41.5424970924 19.2174245227
49643 21 88.697734089 42.1668758739 22.8648255455
49644 21 87.9243462589 42.6470161413 18.0376058604
49645 22 89.638838946 44.0519853246 21.9343842362
49646 22 90.3717240027 41.8150723387 21.3090700558
49647 22 89.3886197339 40.8546047239 18.7985528847
49648 22 86.9720166148 40.7200943587 19.2028322995
49649 23 88.1648373222 42.4915528402 20.4586988943
49650 24 89.6008617497 39.1184107819 18.4110171107
49651 20 86.6635220498 6.5907737807 61.5000749864
49652 20 84.5650481046 5.6614175341 60.0894934096
49653 21 87.0557348185 8.1683521273 61.3014897949
49654 21 85.3794064075 6.0323032073 58.8275467218
49655 22 87.4723614991 5.9372292607 60.5331531191
49656 22 86.8540628106 6.2591468003 62.9143981589
49657 22 84.7516601899 4.2714521496 60.21951386
49658 22 83.1853346923 5.9653847683 59.7697740575
49659 23 85.1624873971 6.5632730523 61.171937044
49660 24 84.4055625881 95.9872043607 60.3175436672
49661 20 46.8294653484 67.3804603196 70.0823601104
49662 20 46.0144522663 66.9707555911 67.3613781816
49663 21 46.3811286444 68.9082473815 70.2792615838
49664 21 45.0166622345 68.1782620615 66.9580341657
49665 22 48.1931834392 67.5406941552 69.6889313232
49666 22 46.737702714 66.7449502909 71.3413135217
49667 22 47.2641452282 67.3450087004 66.8216530026
49668 22 45.4531193723 65.8842897413 66.6719891749
49669 23 45.9067878502 66.8529888666 68.9676452132
49670 24 46.0473783084 64.9704985328 65.2537373269