ITEM: TIMESTEP
13000000
ITEM: NUMBER OF ATOMS
4000
ITEM: BOX BOUNDS pp pp pp
3.23005382 96.76994618
3.23005382 96.76994618
3.23005382 96.76994618
ITEM: ATOMS id type x y z
49081 20 19.9351561168 45.7399126822 25.7394935175
49082 20 17.4963840432 46.4960891721 24.3186225526
49083 21 20.8626976894 44.995335139 24.6855795503
49084 21 17.0301812196 45.5441336875 23.2434750298
49085 22 20.1825691321 44.8626955717 26.8542084148
49086 22 20.5080879575 47.0205673485 25.8947697388
49087 22 16.351175141 46.9782873172 24.9755532166
49088 22 18.1874567679 47.4809706987 23.5632879217
49089 23 18.4562904186 45.5846364609 25.1944365647
49090 24 7.4979797807 47.127015746 27.7853980432
49091 20 45.031909237 56.1168541811 64.5158011161
49092 20 42.921088026 54.6233027198 63.4501946623
49093 21 46.1686060089 55.7833844648 63.5920011391
49094 21 42.5754581237 54.1281960695 64.8699431486
49095 22 45.2296525694 55.2654540808 65.6579232018
49096 22 45.3100968768 57.4796368729 64.7704167031
49097 22 41.6124649318 54.7922357654 62.8740824653
49098 22 43.5805442671 53.4489093712 62.9142110791
49099 23 43.7317047332 55.9301485559 63.6119251362
49100 24 39.8007842966 55.4691839664 63.0968944889
49101 20 11.6382144344 24.689321146 78.1292228906
49102 20 12.0921261161 24.2649306543 80.8506725189
49103 21 12.9570801467 24.1880408628 77.6146599427
49104 21 13.3033648282 24.857880032 81.531923555
49105 22 11.3671545343 25.8131094128 77.2929762529
49106 22 10.7264062716 23.6054744132 77.9919063286
49107 22 11.0532253016 24.3901805702 81.8353669658
49108 22 12.5538857947 22.9800666929 80.4806287047
49109 23 11.8841775814 25.1577689269 79.5953671634
49110 24 7.8652828761 30.8486424382 80.8515143779
49111 20 85.5575999025 76.8110587274 86.2888947809
49112 20 83.4269482343 78.2532567878 87.1279476154
49113 21 86.233238545 77.0606231603 84.9573544132
49114 21 83.8854807866 79.6514910988 87.0511513638
49115 22 85.4335660052 75.4372383284 86.3877664471
49116 22 86.4699880125 77.4417046817 87.2124141382
49117 22 82.0296493222 78.2660717531 86.7561265433
49118 22 83.7472288257 77.7856508659 88.4478890365
49119 23 84.2573953986 77.5698543343 86.0613122228
49120 24 87.7872167767 77.4787464791 88.4749220654
49121 20 45.8638530396 61.3693062169 66.7299839081
49122 20 46.864636348 59.3900956344 68.4480311111
49123 21 44.77729365 62.2197709182 67.3342516128
49124 21 46.420508939 59.4548252399 69.8568354299
49125 22 45.2022453809 60.2581458355 66.1221616876
49126 22 46.5434203576 62.286839021 65.8979465656
49127 22 45.9601055888 58.4130714587 67.8480662415
49128 22 48.2500556937 58.9340886592 68.4314745502
49129 23 46.7069280894 60.8798119602 67.9382386977
49130 24 43.3278930178 51.6205786351 63.1910891605
49131 20 79.1827626982 50.5745220189 36.9329447368
49132 20 81.6238732691 50.9883425027 35.546683532
49133 21 78.6463114155 51.9894999706 37.4302963444
49134 21 82.1840836845 49.558491708 35.1596154574
49135 22 78.8016811768 49.6998304854 38.0543009664
49136 22 78.4767235907 50.2587313422 35.7494780186
49137 22 80.9304620471 51.4509908103 34.408303042
49138 22 82.875343489 51.6071088906 35.8999837054
49139 23 80.7896845091 50.5833147687 36.8337924509
49140 24 76.9308833296 50.6009938084 30.8778268846
49141 20 45.2333941651 40.8417897587 7.5493238276
49142 20 46.042514234 38.220614895 6.6871947017
49143 21 44.1700326688 41.2130495915 6.5595782266
49144 21 45.2713713614 37.9558034597 5.4275771572
49145 22 45.9694595781 42.078948375 7.6658651795
49146 22 44.6188370723 40.4416260992 8.720471342
49147 22 47.2425375131 37.4694895593 6.6229982736
49148 22 45.1855017402 37.7445903828 7.7406222615
49149 23 46.2526983721 39.8233274107 6.794709454
49150 24 49.1066940279 37.4061630522 7.4066661378
49151 20 57.4800110324 24.0256556097 27.5831647959
49152 20 56.0986139021 25.8096484368 29.3299287458
49153 21 58.8077162646 23.5119345208 28.2631998134
49154 21 57.0465471712 26.0771725289 30.4903846505
49155 22 57.9112299362 24.1584822568 26.1682803841
49156 22 56.4847465777 23.0252464609 27.9316944348
49157 22 55.4576785596 27.0422235984 29.0084321358
49158 22 55.2878101151 24.7311334779 29.7190546981
49159 23 57.1312007738 25.4239834606 28.1980025084
49160 24 53.7652612871 23.657763213 29.8187682233
49161 20 31.0960554535 51.5972872019 37.368934175
49162 20 28.6372658429 50.4480560844 38.1846955763
49163 21 30.9871750188 52.3921892072 36.0786448998
49164 21 27.6516359971 51.3894415611 37.3209482103
49165 22 32.3919571222 51.0116339359 37.3005565137
49166 22 30.909630448 52.6432502783 38.3126581491
49167 22 28.0952021667 49.1457001631 38.0348446688
49168 22 28.5619662296 50.9466237107 39.5118395691
49169 23 29.954588147 50.4792984084 37.4162653606
49170 24 77.2768873914 56.3807302174 24.6746353829
49171 20 6.8057284533 78.120149521 41.109220311
49172 20 5.4735613683 77.4724793063 43.5129149249
49173 21 7.2838014892 79.366287967 41.6351015858
49174 21 4.4192732415 76.3674925579 43.3157328318
49175 22 5.7399816897 78.379161483 40.2805504045
49176 22 7.9090034217 77.5645225604 40.3367678798
49177 22 6.0140909903 77.1909242303 44.8081618144
49178 22 4.7283477539 78.6331222907 43.2537158832
49179 23 6.5595688726 77.2881121785 42.4036253414
49180 24 3.4401808988 80.0899125743 43.2530611039
49181 20 11.0982086358 18.0055216773 71.4816233602
49182 20 8.891639991 18.9882517864 70.0944267565
49183 21 10.9148798008 16.5070126017 71.1183144183
49184 21 8.4813553151 17.7478192738 69.3572388648
49185 22 11.6940016262 17.9516426993 72.8297202889
49186 22 11.9691024496 18.5297192341 70.5069376818
49187 22 7.6357453342 19.5794239061 70.4382794008
49188 22 9.6939503557 19.737693404 69.1577182744
49189 23 9.6592377017 18.4977285909 71.3989340954
49190 24 8.3394365904 19.2347294028 77.4620963783
49191 20 83.4656737497 82.6523443856 9.9688734534
49192 20 85.5983832955 81.3121048079 11.093718721
49193 21 82.477331247 81.5215406269 10.3102285826
49194 21 84.8660594782 79.986831613 11.3338730406
49195 22 83.0803829331 83.0468956516 8.6919884447
49196 22 83.4128237105 83.7885734581 10.9246921355
49197 22 86.8671583955 80.8893044944 10.6144296665
49198 22 85.57714974 81.9754897245 12.3738869798
49199 23 84.7885149075 82.0088834661 9.8999064907
49200 24 89.6651236558 79.1104563614 4.4603746702
49201 20 58.3425423799 65.4158419604 90.785076787
49202 20 55.8526039852 64.6679905209 91.6602360199
49203 21 58.8035069694 64.2854123612 89.7915895902
49204 21 55.2440334455 65.9550994398 92.3703908827
49205 22 59.5519196482 65.858472731 91.3373363115
49206 22 57.6238753869 66.3685457641 90.0077602815
49207 22 55.2896809129 64.7134509086 90.3553545215
49208 22 55.3387893564 63.5789055542 92.454389706
49209 23 57.4358602032 64.727014193 91.8058776323
49210 24 57.6964623434 63.1087740552 93.2122499139
49211 20 49.8610932598 61.199718392 91.7085961443
49212 20 51.5736216092 63.432235003 90.9472749603
49213 21 48.6513418319 61.9340065471 92.4794583972
49214 21 50.6586143821 64.6667745023 91.1237847372
49215 22 50.7981759015 60.7819692327 92.7303323885
49216 22 49.2942415121 60.0262604424 91.1280875723
49217 22 52.335036333 63.2807939172 92.1467370001
49218 22 52.4028527549 63.7646757804 89.842194672
49219 23 50.5158725063 62.274678835 90.6695550199
49220 24 51.7550890003 59.2984265399 93.6513261687
49221 20 81.3698189215 79.5831134375 74.6222252462
49222 20 79.9342621934 80.3594945441 76.9409856379
49223 21 82.8511166569 79.6159459397 75.1311758005
49224 21 81.0665625905 79.6437272878 77.9125844999
49225 22 81.6105906044 79.8974074759 73.2517722833
49226 22 80.9230723956 78.2078899401 74.7931226296
49227 22 79.6748760719 81.5804707591 77.6382319956
49228 22 78.8438676682 79.3838734668 76.9125495107
49229 23 80.6575126412 80.6418914792 75.499255277
49230 24 77.7788224538 78.367843156 75.6981210881
49231 20 93.4189730761 81.3803889293 89.1995756115
49232 20 93.8242814297 81.060856657 86.3020839057
49233 21 92.6129398236 82.6799386539 89.2716948685
49234 21 94.276733889 79.6299769236 85.9442938175
49235 22 94.7653862867 81.8257323569 89.4471757066
49236 22 92.9486544973 80.4575243513 90.1794995239
49237 22 92.9018845511 81.2761854892 85.2676262361
49238 22 95.0982947636 81.7914032164 86.113320403
49239 23 93.1021534606 80.9351390417 87.7510168384
49240 24 11.423082036 54.2640159932 90.7092159343
49241 20 10.423645702 79.8878664068 37.8710563172
49242 20 8.2667186781 81.3785181315 38.7512667043
49243 21 11.8796408966 80.3882112911 37.9714246217
49244 21 8.7692617498 81.6737300318 40.1377149889
49245 22 10.4498368719 79.2465569048 36.5734709304
49246 22 10.4031791736 78.9404008371 38.9587381856
49247 22 7.5174641403 82.4848144384 38.2785160884
49248 22 7.3970876528 80.2717541251 38.8684721895
49249 23 9.5750517986 81.1891933893 37.9388727392
49250 24 5.9283897409 79.2680710801 38.5492205368
49251 20 65.2395192633 74.107101059 86.5090876875
49252 20 64.2895281165 71.6745026183 87.3851823194
49253 21 64.4178648488 75.119483314 85.633554295
49254 21 64.5085985444 71.4906967298 88.8997802565
49255 22 65.9525738627 73.2766538946 85.5619962774
49256 22 66.0138424922 74.9867502067 87.3385059131
49257 22 63.0631265877 70.9738888245 87.1410432003
49258 22 65.4510129599 71.0234649675 86.8224463269
49259 23 64.2281659471 73.2296033288 87.284720475
49260 24 65.5228515972 68.877379217 86.0284797206
49261 20 34.8217493662 69.6520766056 68.6973149242
49262 20 36.4935878623 70.6413545072 66.6012730162
49263 21 35.8385279961 69.5506793622 69.9042601554
49264 21 37.8744237534 70.9407757026 67.3324743548
49265 22 34.641123834 68.3825531865 68.0370168241
49266 22 33.6577389457 70.0607523953 69.3980222579
49267 22 36.5502730371 69.3876393299 65.9529480223
49268 22 36.2769494716 71.8000331538 65.7597881446
49269 23 35.5296592716 70.8129066698 67.9185017805
49270 24 36.3373762421 66.2146726411 60.2259681126
49271 20 3.5881479129 26.9392361769 84.6798215525
49272 20 96.4094434348 24.5847435463 83.2636275822
49273 21 4.2787108453 26.3884732907 86.0687954142
49274 21 96.5867950707 23.352729624 84.2400905186
49275 22 96.3680988024 28.0910864114 85.0910229194
49276 22 4.6375672883 27.1996512372 83.7922215139
49277 22 95.1836966853 24.3132907787 82.5440251903
49278 22 4.0412252187 24.6015807269 82.4190558941
49279 23 96.178119281 25.7879471817 84.2072580163
49280 24 6.0747796725 28.2060469391 82.7803069584
49281 20 9.9106448704 58.5797595469 16.7305729444
49282 20 9.5272435596 60.2175495222 14.4314559301
49283 21 11.404813695 58.2037291796 17.1162379206
49284 21 10.8792691637 60.6925450956 13.8031484731
49285 22 9.4588191283 57.3450329678 16.1350979897
49286 22 9.3118679574 58.8059390066 18.0116953102
49287 22 9.160183668 59.025477134 13.7060540649
49288 22 8.6775645933 61.348353281 14.2622422648
49289 23 9.8684864409 59.8985784893 15.9062994129
49290 24 7.43079943 62.3688735066 15.1770624121
49291 20 29.3703379793 29.7907997955 41.0086649267
49292 20 27.7814693677 30.6556696403 39.0188843364
49293 21 30.8561256296 29.6472160607 40.4376974237
49294 21 26.5282218899 30.8181484333 39.8409129104
49295 22 29.2775464061 28.7127525361 41.9735289164
49296 22 29.3093499695 31.0822115494 41.5942246528
49297 22 28.5369910783 31.8337110446 39.1607843531
49298 22 27.3775641125 30.2810423714 37.6990364552
49299 23 28.4235271889 29.5185051688 39.7913367675
49300 24 29.3633224874 27.019119245 40.5580832652
49301 20 53.5755623854 20.9681171481 68.6426876271
49302 20 53.8547789641 18.6206400094 70.1053709239
49303 21 54.3944106032 22.3164011566 69.0040322313
49304 21 55.4222269404 18.5755537813 69.987978359
49305 22 52.2879857671 21.4697715908 68.1983731384
49306 22 54.3428701225 20.5123907925 67.5484579663
49307 22 53.6111075445 18.0714673014 71.3954731194
49308 22 53.297842445 17.7935602812 69.1062713336
49309 23 53.4874478068 20.1325252897 69.9111821074
49310 24 55.275743469 21.2582778942 66.1476045383
49311 20 68.4586946588 19.9049427315 91.4775526101
49312 20 67.208908157 17.4833819981 91.0055503133
49313 21 68.1174611315 19.6682868039 92.918441112
49314 21 67.3481890567 16.8148523874 89.6124606964
49315 22 68.31866544 21.3144018296 91.2669943124
49316 22 69.7662888141 19.3808387147 91.2582015625
49317 22 68.1828455163 16.9384185852 91.8814578653
49318 22 65.851550779 17.1262466891 91.3674561568
49319 23 67.3456634796 19.0005990522 90.7615047341
49320 24 66.7742282772 22.0322269636 90.1926886487
49321 20 84.310993757 72.349954181 83.6130926201
49322 20 86.1787047877 72.2015999117 81.6416458487
49323 21 83.6476088404 73.6347246026 82.9338994616
49324 21 87.1529227667 71.0712638524 81.8826046114
49325 22 85.2676262361 72.7687322791 84.5697250992
49326 22 83.2670885582 71.5725441356 84.2011779233
49327 22 86.1739342532 72.3563148937 80.2155366498
49328 22 86.8798798209 73.2736606181 82.3054984648
49329 23 84.8629726618 71.693023517 82.3297252969
49330 24 83.2032943516 87.658412345 44.1383226452
49331 20 76.408182411 40.2230233707 20.3396226113
49332 20 74.3690127576 39.5308281673 18.629713379
49333 21 75.6144964244 41.5090098109 20.6091110412
49334 21 75.1468905025 39.0190714162 17.4520461342
49335 22 77.3548061217 40.4876477262 19.3437969173
49336 22 77.1133796595 39.905642516 21.554799353
49337 22 73.1138944819 38.7625850313 18.6335485146
49338 22 74.2346894722 40.9529151508 18.3707014171
49339 23 75.3396762206 39.194739334 19.7886726453
49340 24 38.1162243751 35.6663210543 48.5332009479
49341 20 79.1329994755 48.4761416135 29.8560906404
49342 20 80.5699593019 48.984998628 32.3355525672
49343 21 79.673940673 49.2792751293 28.7394114054
49344 21 81.7914032164 49.9576264287 32.1548334951
49345 22 78.0029440359 49.2791815895 30.2732785603
49346 22 78.8450836868 47.1828590618 29.251542316
49347 22 79.4537477664 49.7842970082 32.7782768777
49348 22 81.0412132796 47.9689683172 33.2240880047
49349 23 80.3617395015 48.302812193 30.8937286663
49350 24 74.8572909957 53.4012040261 29.991068705
49351 20 68.4860083074 93.7430888031 31.1064383815
49352 20 68.3735733568 96.0942139976 32.5621061865
49353 21 69.9935907526 93.7544071301 30.7224571234
49354 21 67.285423789 95.6043455813 33.5169614077
49355 22 67.909334871 93.1964416721 29.9397153041
49356 22 68.4152921488 92.9740038081 32.2891567805
49357 22 69.5910885957 95.7044332661 33.2042575475
49358 22 68.1609571815 3.9795861713 32.4730562089
49359 23 68.0176540664 95.284813309 31.2700396533
49360 24 67.645178215 84.3074392411 28.9204110971
49361 20 43.6109447321 82.5069833929 95.486391777
49362 20 43.4866302152 80.0955249679 3.3519858759
49363 21 45.191768913 82.6618854547 95.455149453
49364 21 45.0001056736 79.9367877705 3.855899307
49365 22 43.1095709091 83.8117713514 95.5765642332
49366 22 43.3212516855 81.9642649374 94.1803877999
49367 22 42.6936925476 79.5999506182 4.4048868061
49368 22 43.3336924912 79.4031426846 95.6538281843
49369 23 43.3176036297 81.6560509921 96.7476836856
49370 24 43.6510733459 78.5237741566 94.1156581944
49371 20 7.8567800998 24.1407096773 76.5808570523
49372 20 7.4009976203 25.197710461 79.1228971671
49373 21 6.6890842076 24.1152668266 75.6115031478
49374 21 6.5511222203 26.4340272183 78.6217104239
49375 22 8.6261924844 22.9169272655 76.2743268251
49376 22 8.5717335591 25.3269825922 76.1832189699
49377 22 6.7321967439 24.8875321779 80.3979394399
49378 22 8.7418264994 25.6683096594 79.2518886787
49379 23 7.1755010018 24.2260180591 77.9601963051
49380 24 5.8661482965 24.3064623665 82.0070126683
49381 20 22.9528465842 39.7332484943 74.859629493
49382 20 20.7281873242 40.3308748666 76.5005062848
49383 21 23.8716889469 38.7902728395 75.6248793524
49384 21 20.8198564187 39.7999424376 77.8773199605
49385 22 23.4765764415 41.077884447 74.986563127
49386 22 22.9655680096 39.2220529826 73.5287439045
49387 22 21.1172197365 41.6990828722 76.4978871678
49388 22 19.3789679168 40.0891677848 76.2451423787
49389 23 21.60082098 39.3913601878 75.6134674856
49390 24 26.2238430801 44.8240635961 71.3162448305
49391 20 27.1405340253 25.0867721486 43.2889804226
49392 20 26.5640476687 25.4529808272 40.4950373777
49393 21 26.0291865641 25.5552199296 44.2327979365
49394 21 25.7313555469 26.7564592272 40.3352712416
49395 22 28.0768683478 26.1211362783 43.3328506321
49396 22 27.5421943231 23.8918000237 43.9475948047
49397 22 27.8962428156 25.9305955176 40.3277880502
49398 22 26.0880231564 24.5848370862 39.4278407458
49399 23 26.4009140964 24.8262635484 41.9325584435
49400 24 27.8813699728 24.0112504663 38.6555753945
49401 20 6.1320354406 60.0677921546 17.0763899265
49402 20 5.9556566195 57.9029984257 15.2483398101
49403 21 4.5633620917 60.2233489956 17.081160461
49404 21 4.7735368759 56.9994030655 15.6429846159
49405 22 6.4875805714 61.0717558193 16.121721785
49406 22 6.5876214863 60.2640388487 18.4278542913
49407 22 5.3222980084 58.8103353816 14.3864632419
49408 22 6.8779225423 57.027652113 14.6068432283
49409 23 6.4149094291 58.5672252013 16.6109354221
49410 24 8.6716622261 57.2566377695 14.1080885222
49411 20 8.4204421372 49.3661736893 25.6418378699
49412 20 9.2074119596 51.5192749317 27.216394878
49413 21 7.6400107533 49.9189944532 24.3139455579
49414 21 8.4462404395 52.7561529284 26.7597331235
49415 22 7.7781972363 48.1778428968 26.0620190664
49416 22 9.8008383907 49.1757264685 25.2786224678
49417 22 9.2937773422 51.5063664265 28.6411009785
49418 22 10.4646535909 51.6451796268 26.5622704107
49419 23 8.218134058 50.4342121803 26.7381254083
49420 24 11.4628084282 50.3445074235 25.6418378699
49421 20 28.2426210371 26.3147638555 36.5403578085
49422 20 30.606374117 27.2488532206 37.6707874077
49423 21 27.145959339 27.1335185333 37.2900800458
49424 21 31.4103494918 25.9478068578 37.5189721624
49425 22 28.4202532926 25.1778800038 37.357709388
49426 22 27.7279645493 26.0574356116 35.2479171158
49427 22 31.6525242731 28.177517272 37.4908166548
49428 22 30.0847021373 27.2412764893 38.9667826163
49429 23 29.5775288409 27.1394115466 36.5205273513
49430 24 32.8435677226 29.5112090572 37.454990876
49431 20 20.4138932859 12.475377763 51.2995497245
49432 20 19.4367755703 14.8810086528 52.5020985807
49433 21 19.2226627567 11.8965716171 50.4367377574
49434 21 17.9313445426 14.6647444216 52.2243786403
49435 22 20.4195992193 11.8589311644 52.6094823771
49436 22 21.6450653491 12.2503956139 50.5280326924
49437 22 19.6590263545 14.3506374631 53.8108152147
49438 22 19.6758635352 16.2850424371 52.3242792453
49439 23 20.1952905574 14.0078137576 51.389535101
49440 24 21.4905374469 12.3566475777 58.2037291796
49441 20 45.5694829984 24.8678888005 70.1649558354
49442 20 44.4821752896 23.5912563496 67.9049384961
49443 21 46.6506170742 25.8279822557 69.696882214
49444 21 45.0390182688 24.6159858704 66.8887211055
49445 22 46.1110789751 24.5192656217 71.4966832829
49446 22 44.4228709978 25.6172368782 70.2414714673
49447 22 44.5342770096 22.2953546808 67.2156430293
49448 22 43.1594276717 24.0092861285 68.2340118374
49449 23 45.5386148339 23.676003492 69.1023426582
49450 24 42.7070687522 26.6842464303 70.4312639089
49451 20 4.2764658878 43.7304887146 64.1422963259
49452 20 96.3876486399 42.4241105779 62.1215540312
49453 21 4.1562446766 42.8146396285 65.3888089315
49454 21 3.7144192844 43.3127395553 61.0806421091
49455 22 4.2794311024 45.0599712047 64.582775679
49456 22 5.5117817683 43.3088108798 63.5362513633
49457 22 3.3838670774 41.1007081807 62.1640211424
49458 22 95.0245853284 42.4980070928 61.6321533144
49459 23 96.5425507016 43.3349085098 63.3932288679
49460 24 12.1276993371 42.8927454386 64.6730416751
49461 20 54.2762697191 79.1063406062 17.4315608978
49462 20 53.5150420751 78.9930637965 14.6736307114
49463 21 52.8653139828 79.3179278427 17.8438847433
49464 21 54.5151706042 78.0296964451 13.9190443998
49465 22 55.0382456823 80.0940283296 18.1685617097
49466 22 54.6036593424 77.789953701 17.8552966102
49467 22 52.3956501832 78.22528836 15.0800615437
49468 22 53.3013969609 80.0191964157 13.7386994873
49469 23 54.3521305718 79.5451362412 15.8766472671
49470 24 56.2880321841 80.4618271864 16.208620345
49471 20 22.611519517 44.6222980483 74.165282872
49472 20 24.6033579849 46.5111490947 73.372812904
49473 21 21.5098066648 45.2103833516 73.2608456528
49474 21 24.0678421011 47.7794564952 72.5922225022
49475 22 21.8718060482 44.1670393922 75.3059083195
49476 22 23.1297305207 43.5295650258 73.4070485046
49477 22 25.6870176379 46.9278693152 74.1394658617
49478 22 25.0135304129 45.6825727282 72.3068322906
49479 23 23.5668424377 45.8886411111 74.394736228
49480 24 27.6349858963 46.6970128609 74.4675102643
49481 20 77.8139934533 74.8489659453 74.2988578383
49482 20 76.7386588508 75.7526548454 76.6136895546
49483 21 76.8536193785 75.5984075629 73.3533566064
49484 21 75.3710120846 76.3672119382 76.2576767242
49485 22 77.9407400075 73.5676564998 73.5984311243
49486 22 79.0005469879 75.6220731557 74.2662124159
49487 22 76.5034060215 75.1509127178 77.8644114553
49488 22 77.6027803764 76.8960864896 76.645493118
49489 23 76.987849124 74.6611378414 75.5718422335
49490 24 36.4036024859 15.3007221498 67.7530297109
49491 20 60.4356845512 78.1969457726 17.7039490643
49492 20 57.7849510815 78.7696905336 18.601932031
49493 21 60.1791981664 76.6987173167 17.5604588694
49494 21 57.3817006056 77.355460901 18.3392720132
49495 22 61.7887390942 78.25138599 18.1355421277
49496 22 60.2236296152 78.8200149957 16.4199269619
49497 22 57.0682484263 79.2356127374 19.761171917
49498 22 57.5009639683 79.3886440013 17.361873678
49499 23 59.3544569354 78.6227393627 18.8388685783
49500 24 64.6485342233 81.407609038 19.7260944574
49501 20 27.093857619 3.5114957127 14.3537242796
49502 20 24.4324606016 96.1356521699 14.027457135
49503 21 26.546368629 4.9727674926 14.397688029
49504 21 23.8843168323 3.6820554171 13.0201260342
49505 22 28.1781720512 3.5491501964 13.3872701117
49506 22 27.5160031532 96.7132610052 15.637746382
49507 22 23.743819914 94.9333839334 13.5637798886
49508 22 23.9849657565 96.568274172 15.3195236682
49509 23 25.9342435734 96.1072160426 13.7056799053
49510 24 23.0705197688 96.174658305 16.7954896297
49511 20 39.6777793382 52.9854192045 35.0254792518
49512 20 42.1614505601 53.8293361134 36.2716176978
49513 21 40.0307988919 51.9878162525 33.8742837965
49514 21 43.4021636924 53.1121657587 35.7067302878
49515 22 38.6357449373 53.827091156 34.4341200523
49516 22 39.2481506126 52.2204499648 36.1238246678
49517 22 42.6570249098 55.1743462257 36.5882502334
49518 22 41.8731606119 53.1319962159 37.4949324101
49519 23 41.0427134475 53.7946328133 35.176452638
49520 24 41.4845023591 52.8048872123 43.9058760127
49521 20 10.4139830312 19.6430310329 64.0105921574
49522 20 12.010521914 18.7251240692 66.1093467223
49523 21 11.4620320471 20.6444691205 63.4014603784
49524 21 11.2287342016 17.3551388057 66.3942692345
49525 22 9.0785514039 20.1163428883 63.8851551618
49526 22 10.7083156565 18.440295097 63.2713463881
49527 22 13.0940225491 18.5113854152 65.2115508355
49528 22 12.383306447 19.2129346079 67.4054354709
49529 23 10.9341864345 19.6478951073 65.4856227201
49530 24 17.7599794598 14.1881586701 70.1144442935
49531 20 12.6512046987 15.1395529153 60.7803790546
49532 20 13.0914034322 14.6596932675 63.5285810921
49533 21 11.5973749174 14.1394243862 60.1509491189
49534 21 12.060051287 13.5232771152 63.8941349915
49535 22 13.6182201059 15.3706899893 59.7486340418
49536 22 11.9417139691 16.3470593857 61.1512647278
49537 22 14.1854460132 14.3627041092 64.3983150113
49538 22 12.470223715 15.8838498388 63.8689727604
49539 23 13.2474279726 14.4174249462 62.0222146655
49540 24 5.3600881249 16.3701637392 63.3372920122
49541 20 93.1738050182 78.1900238206 74.927445915
49542 20 93.7065147052 80.4080417483 76.5213656808
49543 21 91.6811889558 77.9227803481 74.9068671387
49544 21 95.1997855468 80.1767175944 76.6871183701
49545 22 93.6772367189 77.3330113268 75.9213072713
49546 22 93.5799552308 77.8303629345 73.6616640916
49547 22 93.4986690644 81.8439726359 76.350000598
49548 22 93.1325539257 79.910315981 77.7303687896
49549 23 93.3322615958 79.6917132526 75.1519416567
49550 24 92.4312853526 83.2399619894 75.6110354484
49551 20 25.2868539784 43.4704478138 76.4937714126
49552 20 27.0940446988 43.5908336553 74.3150402397
49553 21 26.1910105779 42.6622631438 77.4630317772
49554 21 28.1660118652 42.4954815157 74.6791910407
49555 22 24.0130277242 43.0478345801 76.775794188
49556 22 25.5061114861 44.8468873299 76.8346307803
49557 22 27.006959059 43.6391937796 72.8937951152
49558 22 27.6428432472 44.8184512026 74.9279136145
49559 23 25.7671813256 43.0284718224 75.0366069694
49560 24 26.1766989744 42.6018363733 68.4787121958
49561 20 39.1232748563 67.5492998253 60.8615716811
49562 20 41.7257417415 67.1270607512 61.7542228739
49563 21 39.0875426174 68.7541871788 59.8539599606
49564 21 42.005987259 65.664658074 62.2926384944
49565 22 38.7893374405 68.1637633782 62.0917148056
49566 22 38.135400053 66.6622610261 60.2701189418
49567 22 42.9630874376 67.479144906 61.1964444958
49568 22 41.4847829788 67.868457938 62.9498497781
49569 23 40.5785685016 67.0448391858 60.6481136468
49570 24 37.5126114497 68.6450261244 63.6980753771
49571 20 63.4594551117 14.9189858491 90.5676900771
49572 20 64.8850966111 15.218032885 88.0693330921
49573 21 62.1807647831 14.1477494366 90.1466670216
49574 21 63.9137783688 14.6164778372 87.0160739041
49575 22 62.9662192592 15.785445872 91.5848428667
49576 22 64.3876514635 13.9012718202 90.9887131327
49577 22 65.5180810627 16.3197457372 87.4216628774
49578 22 65.716853334 14.0531806054 88.3295610726
49579 23 64.0010510884 15.7342795509 89.2577574245
49580 24 61.466494165 16.6169219752 6.0693730667
49581 20 76.2957474604 46.5115232543 39.8959143671
49582 20 77.4620963783 45.5171941985 42.2760369282
49583 21 74.8455985092 46.7309678418 40.391395177
49584 21 78.8686557397 44.9467879349 42.163321358
49585 22 76.2913510855 45.3393748631 39.1101792713
49586 22 76.5754317386 47.7337154879 39.1946457941
49587 22 77.5730346906 46.1969485963 43.5385448554
49588 22 76.543815255 44.400982663 42.4097054344
49589 23 77.2389101951 46.5828006523 41.1365339595
49590 24 75.7802491136 43.6764226568 43.9967032482
49591 20 76.1884572039 67.3212495677 60.8210689078
49592 20 75.190760712 69.9703928593 60.7714927648
49593 21 75.5533213348 66.6013665561 62.0629980586
49594 21 74.5311173911 70.4891651023 62.1732815917
49595 22 77.5669545976 66.9747778064 60.7281837946
49596 22 75.3005765456 66.848311872 59.7680903395
49597 22 75.9031605322 71.1316906229 60.3178242869
49598 22 74.0792261711 69.5131698654 59.9644305735
49599 23 76.1755486987 68.8656867305 61.231054256
49600 24 78.6204944053 65.739396448 56.4047699698
49601 20 90.1109347828 78.9455455312 7.6718236707
49602 20 90.9195871522 81.3392313767 8.9248560068
49603 21 90.1812767818 77.6329002217 8.5161147391
49604 21 90.3119520114 82.262750734 7.7875418715
49605 22 90.3981957922 78.6211491845 6.30282993
49606 22 88.7599381174 79.4146480914 7.9436505979
49607 22 89.8763367327 81.2823591221 9.8792902985
49608 22 92.055535605 82.0505087182 9.3840152764
49609 23 91.1423056359 79.9409035258 8.2273945074
49610 24 94.7102912901 88.9604876466 16.8877199636
49611 20 95.959984252 87.952127607 14.1464398781
49612 20 93.3586398455 87.0891285601 14.8163725872
49613 21 95.8465203626 88.9342964768 13.0178810768
49614 21 92.5132262983 87.8522270019 13.7214881471
49615 22 3.6335344041 87.172566144 13.8780739269
49616 22 96.0179789853 88.7215867615 15.3705964494
49617 22 92.7426796543 85.8021131811 14.844341015
49618 22 93.3456378005 87.9169566074 15.9676615823
49619 23 94.7092623513 86.985766979 13.9942504732
49620 24 32.267923225 31.8184640422 44.6810411007
49621 20 46.0240868752 14.4907602219 70.2427810258
49622 20 44.9472556344 16.1505320719 72.4053297973
49623 21 46.5827071124 13.0787755467 70.7117900461
49624 21 44.814616067 15.4217627705 73.8304100574
49625 22 47.2045603168 15.3725607871 70.1822607155
49626 22 45.4008305724 14.1962966407 69.0136668402
49627 22 46.1910555831 16.7861356405 72.4352625628
49628 22 43.7636953763 16.9210201653 72.2964493626
49629 23 44.9011404674 14.9259078011 71.4060431272
49630 24 45.2349843433 23.3903326608 72.6086855233
49631 20 52.452335358 80.782762557 77.9670247172
49632 20 54.9867052016 80.8798569653 79.2467439846
49633 21 51.4495877119 81.9415347436 77.8496321523
49634 21 56.0246238472 80.5287082094 78.1965716131
49635 22 51.8836128124 79.8376354846 78.8593017504
49636 22 52.5107042508 80.360429943 76.6276269985
49637 22 55.5743228054 81.8753084998 80.1183487016
49638 22 54.7249805828 79.6084627484 79.8524147876
49639 23 53.773212178 81.5096610606 78.4473520645
49640 24 51.7615432529 77.8648791548 78.8577115723
49641 20 63.5760993574 69.324967602 24.0196690566
49642 20 62.3779468762 71.6446633926 22.9268424941
49643 21 64.0269616386 68.5436288811 22.7638960016
49644 21 62.6168477613 71.4158648159 21.4196342085
49645 22 63.2022204077 68.4163210876 25.049917431
49646 22 64.7265464936 70.1184665089 24.3390142491
49647 22 61.0791454708 72.1797115769 23.1124256406
49648 22 63.4666576834 72.4687498443 23.4242876417
49649 23 62.4021737083 70.1665460135 23.5091283241
49650 24 64.5607938043 71.8542862914 24.6279589766
49651 20 83.0825343506 31.4530036827 56.6958661148
49652 20 84.7120928154 30.9328283413 54.3588654441
49653 21 82.9193072384 33.0617027515 56.567061683
49654 21 85.3577986924 29.5135475545 54.4139604407
49655 22 84.1374772566 31.2282273214 57.6421156659
49656 22 81.7890647191 30.9642577452 57.1300782951
49657 22 84.4475619998 31.1325360115 52.9966439916
49658 22 85.6934198262 31.792553492 55.0078452173
49659 23 83.3551095969 30.9138397432 55.2067110284
49660 24 84.9229317328 30.875769007 59.3037583138
49661 20 37.5599426352 33.9965404358 45.3023330658
49662 20 39.3936986851 36.0293493766 45.6544172206
49663 21 36.3141783488 34.920995192 45.2999945685
49664 21 40.9195214092 35.7641637817 45.4799653214
49665 22 37.5777152148 33.5538161253 46.6581938055
49666 22 37.298592176 32.9545995748 44.4056596576
49667 22 39.1415151353 37.3584577071 45.1443441876
49668 22 39.2395449425 35.9489050691 47.0333823138
49669 23 38.7764289354 34.8860112722 44.8558671595
49670 24 39.7754349858 38.888022027 46.1513011288