ITEM: TIMESTEP
13250000
ITEM: NUMBER OF ATOMS
4000
ITEM: BOX BOUNDS pp pp pp
3.23005382 96.76994618
3.23005382 96.76994618
3.23005382 96.76994618
ITEM: ATOMS id type x y z
49081 20 17.2052878981 51.4554807251 26.2784703773
49082 20 15.9344549205 49.918339674 24.2031943254
49083 21 17.1348523592 52.8143347414 25.4607446383
49084 21 16.2543613524 48.4019644789 24.4939163108
49085 22 18.4752790167 50.9169715648 25.9974765406
49086 22 17.0248494458 51.7908212392 27.6579031699
49087 22 14.6057207496 49.9537912932 23.7167868851
49088 22 16.8165361055 50.508389315 23.2037205755
49089 23 16.0315493288 50.6516924301 25.5995578385
49090 24 5.9244610654 49.1119322619 26.3149509353
49091 20 44.0127921097 53.278760307 64.7058741774
49092 20 42.6451453435 52.643530898 67.0274407658
49093 21 43.073090351 53.8987427135 63.6209985058
49094 21 43.7569605041 51.7490089073 67.5061779349
49095 22 44.1010937681 51.9049399079 64.3304985893
49096 22 45.2434964735 53.9955565021 64.5447984827
49097 22 42.157241265 53.2592104695 68.2466397229
49098 22 41.7394921057 51.7274947321 66.3622785913
49099 23 43.3480040947 53.651516778 66.0691245686
49100 24 41.7760662036 54.2309028713 69.6947307965
49101 20 8.4150635934 22.5557697411 82.3381438872
49102 20 8.0696768949 22.4496019633 85.023580657
49103 21 9.9267617938 22.3036797312 82.5767641526
49104 21 9.453889576 22.8589325323 85.6369217312
49105 22 8.293770415 23.4530979285 81.2255804075
49106 22 7.7581048674 21.2640773675 82.1524672009
49107 22 7.0757313526 22.9767927966 85.9072520201
49108 22 8.0980288362 21.0113325784 84.9901869154
49109 23 8.0867292172 23.2303794448 83.6872697547
49110 24 5.2466990674 30.0484086591 83.5147821932
49111 20 88.3383538225 71.9244412107 86.0314729971
49112 20 85.8718004009 70.6139473187 86.4621306616
49113 21 87.9906660426 73.3819798134 85.712689044
49114 21 86.2167755239 69.1695978408 86.8396576671
49115 22 88.5115897032 71.1342162 84.8413649467
49116 22 89.5421186973 72.1438857981 86.7536945061
49117 22 84.8577344278 70.9298315352 87.4023936596
49118 22 85.5204645652 70.7048680941 85.053139263
49119 23 87.147403913 71.4501939564 86.9065386902
49120 24 88.7555417425 72.7286972052 88.5879182553
49121 20 45.8806902202 56.7727559063 62.6548249576
49122 20 48.1030109829 55.0805257136 62.7695048656
49123 21 46.3931952905 58.1708966774 62.2650442261
49124 21 49.2852616825 56.062133344 62.8016825886
49125 22 45.9407428311 56.7417942019 64.0993615153
49126 22 44.5924588227 56.718315689 62.0811447977
49127 22 47.8531659304 54.8152465789 64.1747546685
49128 22 48.6587314834 53.9324170748 62.073942226
49129 23 46.9377845438 55.805834039 62.0379293675
49130 24 41.2083725969 49.9291903015 66.7176366423
49131 20 74.6069782438 52.827710946 31.5886365267
49132 20 77.3185126435 53.5809876992 31.1297298147
49133 21 73.8488374162 54.1540130798 31.7531731973
49134 21 78.246147756 52.2429930789 31.0890399616
49135 22 74.0932571549 51.8973631766 32.5155233201
49136 22 74.5313044708 52.3996723986 30.2558801403
49137 22 76.9910294803 53.8707742857 29.7967863486
49138 22 78.2006873683 54.4574564906 31.7868475586
49139 23 76.0138182249 53.2136565419 32.0082564838
49140 24 73.7893460446 52.4599120893 25.9667954559
49141 20 45.2919501377 41.1616026507 12.199042213
49142 20 45.8237244258 40.3215208774 9.4943081635
49143 21 43.843110745 40.7237424145 12.5541383524
49144 21 44.4011697428 39.8896471944 8.8697516562
49145 22 45.4199127105 42.4363643038 12.8607340576
49146 22 46.0513069839 40.1274256007 12.8292111139
49147 22 46.5986088941 40.8155985888 8.3438797353
49148 22 46.2885241509 39.117381843 10.0502438057
49149 23 45.4236543062 41.3790829004 10.6086021312
49150 24 48.2687636722 40.3483668265 7.7429888208
49151 20 53.750575524 18.6476730383 33.7548333539
49152 20 55.1921188052 21.0814874977 33.8864439825
49153 21 52.5618705719 18.892186317 34.5980954836
49154 21 53.88443111 21.9435511456 34.0005626512
49155 22 54.0382106931 17.2918122986 33.9994401725
49156 22 53.3381581386 18.9922740018 32.4381658291
49157 22 56.0411804082 21.8143725543 34.8325999937
49158 22 55.5999527359 21.1775529671 32.5409661708
49159 23 54.7506105133 19.6891461999 34.3918400209
49160 24 53.8403738207 18.2353491928 30.6099286329
49161 20 32.2440705524 53.3486346066 39.5369082603
49162 20 29.7726530564 52.5416659552 38.7508925448
49163 21 31.8767393951 54.7978481589 39.0968966066
49164 21 29.268098877 53.2926042111 37.4432983895
49165 22 33.6188263504 53.1654834973 39.1778086135
49166 22 32.0634450203 53.2850274798 40.9385100074
49167 22 29.0874733448 51.2999238841 38.5437952231
49168 22 29.3157106822 53.3320780456 39.8640172639
49169 23 31.2820127595 52.3625370613 38.6512725594
49170 24 77.0171271103 57.5051732635 19.2235981556
49171 20 5.8555782887 78.5650252491 42.5001585103
49172 20 3.8270759246 78.7472409594 44.3632860864
49173 21 7.1679803945 78.7261009437 43.4333124765
49174 21 96.2941087475 79.2780798485 43.4464080615
49175 22 5.5439688453 79.958114866 42.1593926825
49176 22 6.3192274732 77.7555310206 41.4064900889
49177 22 96.6954884256 77.8153965517 45.2353585028
49178 22 4.3726248972 79.9227567867 45.0010410725
49179 23 4.7685418456 77.913332819 43.4011347536
49180 24 4.9387189718 81.8036569423 45.0196555111
49181 20 7.7513699951 14.2745895306 76.6868377504
49182 20 6.1661962093 14.7003831206 74.4663877855
49183 21 6.8472414576 13.1974776701 77.2757649127
49184 21 5.6455625224 13.3224469663 74.8669256046
49185 22 8.2148882238 15.0114032627 77.8147417725
49186 22 8.8011027292 13.6278547148 75.9599392469
49187 22 5.0242986193 15.5613242899 74.1838973106
49188 22 7.0331332856 14.5388397265 73.3453121756
49189 23 6.8049427182 15.1877259598 75.7856744274
49190 24 3.3451219186 16.305153514 81.0353202664
49191 20 79.6561680935 74.2274869005 12.8880477062
49192 20 81.7511810626 74.7538358748 11.1066085181
49193 21 78.6599682398 73.4823481179 11.9864447457
49194 21 82.4068957081 75.9567588905 11.7687774162
49195 22 79.214285642 75.5546308933 12.8719588447
49196 22 79.5037916088 73.6208806985 14.1296026975
49197 22 82.7695498708 74.018425241 10.5269979291
49198 22 80.7504912942 75.3295739122 10.255938029
49199 23 81.0533734656 73.9203954338 12.3144236703
49200 24 86.1702861974 74.6162386931 4.9148475912
49201 20 56.563600707 65.0417759308 90.2562022356
49202 20 55.1177545908 64.6431089096 92.6215454937
49203 21 56.7172867501 63.4802209678 89.9912037205
49204 21 54.7072080032 65.8233017315 93.4553600942
49205 22 57.8021624217 65.5903873995 89.8042174757
49206 22 55.4142760496 65.3980693808 89.5056381393
49207 22 53.9556149681 64.2613726089 91.936459322
49208 22 55.4023964832 63.615573192 93.5691981432
49209 23 56.4185203339 65.1087504937 91.8303850841
49210 24 57.0647874503 63.3189581933 94.6596862083
49211 20 49.2044432155 60.920782433 93.9310104468
49212 20 50.7556152505 63.1001683851 92.9492157366
49213 21 47.9814091229 61.6344918117 94.5140445959
49214 21 49.8312540342 64.2590341115 93.385111635
49215 22 49.96520316 60.5237055899 95.0562953519
49216 22 48.6909092064 59.7315162415 93.2468596741
49217 22 51.7687458246 63.1147606083 94.0155705095
49218 22 51.2072258508 63.4875170794 91.6871755089
49219 23 49.7742882397 61.9097797149 92.8320102515
49220 24 51.5290966204 59.4856934044 94.6396686714
49221 20 84.8262114841 84.4296958804 75.1874868157
49222 20 82.1560217168 85.2696841138 75.657431235
49223 21 85.4171029841 84.1464570863 76.5468085315
49224 21 82.1339463022 84.7068545814 77.0345255303
49225 22 85.7699354581 84.9545482164 74.2737891472
49226 22 84.3482226341 83.096097635 74.8026636986
49227 22 81.3062117947 86.4194764707 75.6764198331
49228 22 81.6099358252 84.2523442445 74.8690770222
49229 23 83.6992428609 85.4339401648 75.4980392584
49230 24 81.2769338084 83.7922215139 73.2031315392
49231 20 90.4486137942 78.3509124355 93.3344130134
49232 20 92.8710163866 79.8115378547 92.8282686558
49233 21 89.6802771183 78.5386469994 92.0357986877
49234 21 93.7897652094 78.6903687048 93.3839891563
49235 22 89.4568103155 78.5301348692 94.3409022552
49236 22 91.0211714753 77.0491177535 93.2059827412
49237 22 93.0539804161 79.6943323695 91.4138519434
49238 22 93.5146643859 80.8647970426 93.4655559425
49239 23 91.4532322381 79.5564545682 93.4384293737
49240 24 18.4088656931 56.7431973003 91.8663979427
49241 20 9.7824110319 78.8546247558 38.6848533808
49242 20 9.3987945794 81.2785239866 40.1377149889
49243 21 11.2182016097 78.2030258656 38.9655665977
49244 21 10.4605846055 81.1142679356 41.2963936356
49245 22 9.5947793619 78.4896320958 37.2678175514
49246 22 8.8865981908 78.1562559195 39.597147951
49247 22 9.3315206888 82.6790967949 39.8575630113
49248 22 8.1707467485 80.8248555086 40.6989543431
49249 23 9.933608914 80.4155249396 38.9288989599
49250 24 6.3891017728 81.0073518386 40.837206304
49251 20 60.9352811163 72.0508136052 80.8547882742
49252 20 61.022460296 69.7758298832 82.4961327654
49253 21 59.4952344734 72.5106557161 80.8139113412
49254 21 62.271217859 69.6023133828 83.4164717663
49255 22 61.0923345956 71.1535789577 79.7766474748
49256 22 61.6871547711 73.2917138173 80.7588163446
49257 22 59.9300078931 69.3369407082 83.3147003634
49258 22 61.2713699496 69.0058094892 81.3404473953
49259 23 61.0280726895 71.3174608491 82.258354359
49260 24 60.7677511691 67.0903931134 81.2362439552
49261 20 35.1564351011 70.4604483553 67.0592443292
49262 20 36.4340029509 70.3948768908 64.5265582037
49263 21 36.44345048 70.5760636623 67.9956721917
49264 21 37.9409306168 70.9046693042 64.4928838424
49265 22 34.7691799467 69.0913049509 67.0457745847
49266 22 34.21879122 71.2882764027 67.7736084872
49267 22 36.433067552 68.9690483116 64.8440325984
49268 22 35.9796796937 70.6819508204 63.2097035991
49269 23 35.6412523632 71.1178467188 65.717695193
49270 24 33.7172303172 62.4636294176 63.4680607818
49271 20 92.8057255417 26.9989146282 85.7637618252
49272 20 92.1654449785 24.8745301328 83.9928645831
49273 21 93.15481642 25.9782073228 86.9534957161
49274 21 91.6313321932 23.6949920902 84.8020781919
49275 22 92.1219489286 28.0486193003 86.4286433801
49276 22 94.096856676 27.3221884962 85.2501342763
49277 22 91.3757812072 24.8721916355 82.8469073618
49278 22 93.510268011 24.5907300994 83.8192545428
49279 23 91.8263628687 26.2005516469 84.8248083857
49280 24 95.7060234443 27.8027029233 84.4782430845
49281 20 7.4198646166 64.1132989593 17.0987459607
49282 20 6.4128796134 61.5877218655 16.0780386553
49283 21 8.3791629827 64.6745383134 15.9938527522
49284 21 7.1164960377 61.5063421592 14.6846684187
49285 22 8.1922047999 63.4717088376 18.0549107405
49286 22 6.8141751056 65.2131410136 17.6704617829
49287 22 7.110125971 60.6344568225 16.9435632793
49288 22 5.0285546844 61.2545327689 15.8331512171
49289 23 6.4169579527 63.1639625917 16.2742853495
49290 24 3.5003074062 62.7550061823 15.835863874
49291 20 29.7716241176 28.2850881482 48.0180767607
49292 20 28.4005163754 30.1548570566 46.2370772101
49293 21 31.3100747272 28.3561784664 47.969997256
49294 21 27.0292215534 29.8783531348 46.7917687718
49295 22 29.4402122789 26.9667369053 48.2495879942
49296 22 29.5643397161 29.1731558862 49.1605730059
49297 22 28.7836557745 31.3795748672 46.7774571683
49298 22 28.2821884115 30.1764647717 44.8292082902
49299 23 29.2764239274 28.9106829483 46.6191876704
49300 24 29.3401245941 25.5316478767 46.726477927
49301 20 51.5160010355 26.1704318016 65.0985546455
49302 20 51.5847528563 25.1377513899 67.6072945586
49303 21 51.1554047504 24.8821068641 64.3887739423
49304 21 52.1202687401 26.1451760307 68.6574669301
49305 22 52.9203154395 26.1287130096 65.0026762558
49306 22 50.9362407826 27.1601774027 64.3123518502
49307 22 50.5836889283 24.3783010039 68.3223134958
49308 22 52.7578366464 24.3864389745 67.2512817283
49309 23 50.8983571262 25.9714724506 66.5031496692
49310 24 53.8877985461 24.8188738969 65.7631555807
49311 20 67.7290834984 18.3823003637 89.4548459777
49312 20 67.6376014837 15.5995821059 89.2267021803
49313 21 67.0649502627 18.4476847485 90.9195871522
49314 21 68.541945163 15.131976184 88.0630659193
49315 22 67.170650341 19.548275122 88.8622707596
49316 22 69.1571570351 18.4485266075 89.7017912936
49317 22 68.3731056573 15.5641304867 90.4050242043
49318 22 66.454602465 14.8101989543 89.1814288724
49319 23 67.2968356558 17.0667553176 88.7626507743
49320 24 66.3453478707 21.0993536171 88.3164654877
49321 20 87.7425047082 73.735186447 82.3978223385
49322 20 88.898470698 73.8153501347 79.6929292712
49323 21 89.0581432942 73.1575776116 82.9610260304
49324 21 89.6224694648 72.4694981634 79.1789275626
49325 22 86.6627737307 73.0045463477 83.0156533276
49326 22 87.780949604 75.1470775822 82.7718883681
49327 22 88.2231126751 74.3281358246 78.5509007253
49328 22 89.9575293593 74.6211027675 80.0456682052
49329 23 87.8786052516 73.4039616881 80.8279423251
49330 24 83.7220665947 94.9356288908 39.494534689
49331 20 73.0647860384 27.3211595574 13.2304037122
49332 20 70.6467798209 28.5662690646 12.8625113155
49333 21 72.4921348174 25.8447258964 13.2788573764
49334 21 71.0313223184 29.9643162958 13.6245808186
49335 22 73.1286737849 27.7934424739 14.5832711754
49336 22 74.3141983807 27.0417558989 12.5383114026
49337 22 69.8253124862 29.0313494094 11.8017502282
49338 22 69.972357197 27.8219721411 13.8506667384
49339 23 72.0563324589 28.0554477124 12.395429217
49340 24 44.7029294355 37.2967213781 47.0661212761
49341 20 76.3518713958 50.6848990918 24.7185991323
49342 20 77.4690183303 51.0325868717 27.2500692392
49343 21 76.9919648793 51.8366557865 23.8883390477
49344 21 78.1018157021 52.4070620501 26.8712326752
49345 22 75.083844615 51.1717742316 25.2302623435
49346 22 76.2620730992 49.5884244736 23.7932089772
49347 22 76.2102519988 51.4259221191 27.7952197319
49348 22 78.4032947752 50.33019582 28.1080171319
49349 23 77.4016696078 50.364057261 25.8590374999
49350 24 71.6341869247 54.4518440971 25.000434828
49351 20 63.8944156111 92.1573070079 33.595721997
49352 20 62.3106916936 94.5380843483 33.6727988683
49353 21 65.0888264967 92.8195694458 32.7663973114
49354 21 60.8293004183 94.0860995884 33.9371426041
49355 22 63.1913697802 91.5682863057 32.5308638624
49356 22 64.4860554303 91.2012357681 34.4977271791
49357 22 62.3793499746 95.7102327394 34.4365520895
49358 22 62.3863654665 94.6918639313 32.2479992279
49359 23 63.2400105242 93.4067193502 34.3505889284
49360 24 64.8966955578 82.3129816562 30.8666956374
49361 20 39.7120149388 85.503253225 87.4276494305
49362 20 39.1478758479 82.8833879198 88.0400551058
49363 21 40.0839295508 85.2889533316 85.9271760172
49364 21 40.0102201156 82.0329232184 87.1597511788
49365 22 40.667712019 86.5422008094 87.8162141434
49366 22 38.3679402254 85.9410199212 87.3751735509
49367 22 39.0464786046 82.2315084099 89.3453107638
49368 22 37.8749849927 83.0288424524 87.3921978113
49369 23 40.0421172189 84.1685325009 88.087666911
49370 24 36.1173704153 82.9716895782 87.9670004499
49371 20 4.7992229303 22.6198445674 79.9439903423
49372 20 3.9588698913 24.266988532 81.9807279585
49373 21 4.1245477487 22.0794646092 78.5845750866
49374 21 3.7684123811 25.515746095 81.2075272083
49375 22 5.4144067404 21.4515313118 80.4496670004
49376 22 5.7691661361 23.5719871317 79.5282055207
49377 22 96.5812762171 24.3812007405 83.099558611
49378 22 5.3158531098 24.3355532731 82.4361736944
49379 23 3.5937182135 23.1584472676 80.8850016594
49380 24 95.1999726266 23.8784238191 84.3038847252
49381 20 24.8467487848 36.0669524133 69.530007046
49382 20 23.7685144456 34.1015857349 71.2792965731
49383 21 26.0296542636 36.5941432466 70.5496854126
49384 21 24.83355966 33.486280323 72.2255461242
49385 22 23.7645857701 36.9819596404 69.681261052
49386 22 25.4758981008 36.1185864339 68.216987577
49387 22 23.169391435 35.1793523747 72.0741985783
49388 22 22.9072926566 33.0699342621 70.8995246101
49389 23 24.569403004 34.5830355609 69.9760052528
49390 24 20.7438084862 41.2021054241 70.1507377717
49391 20 26.8410192899 23.3628319324 49.0142766143
49392 20 26.0912970527 24.7769680251 46.7465890038
49393 21 26.0398501119 23.6702975586 50.3578836281
49394 21 25.4087364581 26.0686603987 47.2474951274
49395 22 27.9747227853 24.1587628765 49.1645952213
49396 22 27.079078316 21.9427092866 49.0830284352
49397 22 27.4652109916 25.1998618785 46.6409824653
49398 22 25.4727177445 24.5223524381 45.4729498294
49399 23 25.8460354549 23.7727237407 47.9316459001
49400 24 27.6236675693 23.9336123556 44.3273667677
49401 20 3.7555169715 63.4230680935 18.5938876002
49402 20 5.3334199016 61.2145912349 19.6344253628
49403 21 95.9337930822 63.2596539016 19.396179257
49404 21 4.5923220424 60.9141411006 21.0214348868
49405 22 3.2983417766 63.8758947124 17.3772142203
49406 22 4.3770493341 64.4426529203 19.3635338346
49407 22 5.6917431672 59.914480271 19.1590556299
49408 22 6.4437010079 62.049621854 19.8735133277
49409 23 4.2581694849 61.9290489328 18.6900466096
49410 24 7.2514179785 59.4838226066 18.448058908
49411 20 6.5617109361 51.8541477463 24.2281694766
49412 20 8.1218815088 53.9580470053 25.3788036926
49413 21 5.5034754259 52.6490497516 23.4355124288
49414 21 7.3663036743 55.2953868464 25.1752608868
49415 22 5.9307563002 50.6898567061 24.7950212243
49416 22 7.5241709506 51.592890827 23.222428554
49417 22 8.6233114558 53.9390584072 26.6522557871
49418 22 8.9614394587 53.986950832 24.2821419945
49419 23 7.0167638045 52.8261207679 25.327169672
49420 24 9.3283777484 52.3260565033 23.3613352941
49421 20 28.3845210538 26.7413057647 42.8178199848
49422 20 30.8177742737 26.8360616756 44.1296234353
49423 21 27.5497710543 27.8739803213 43.3719503071
49424 21 31.6470989594 25.6152725404 43.5469634457
49425 22 28.0179382156 25.6124663437 43.558936552
49426 22 27.9406742645 26.6137173515 41.4843152793
49427 22 31.8503611455 27.8063509791 44.2579601676
49428 22 30.3611125192 26.4242055296 45.4206610296
49429 23 29.8032406012 27.2636325236 43.014908538
49430 24 32.735435607 28.9842988436 45.2301202689
49431 20 20.2061411849 7.0759090784 60.0953864228
49432 20 20.3444866857 6.6412853226 57.2390522697
49433 21 21.4593886628 6.3940500331 60.7529718661
49434 21 21.781633592 6.1555887855 56.9249453112
49435 22 19.1758928105 6.1018407633 60.1836880812
49436 22 20.0257962725 8.2252430898 60.9619399856
49437 22 19.5511748586 5.4761430693 57.4150008072
49438 22 20.0341213229 7.4392180203 56.0736387508
49439 23 20.5821715522 7.4908613949 58.5838753022
49440 24 18.9251123591 6.0401137884 65.6800921563
49441 20 44.5457824164 25.1743254879 66.4929538209
49442 20 43.1077001112 23.644761168 64.567996376
49443 21 45.8730199491 25.9189965709 66.0216063033
49444 21 43.4941134066 24.0059186924 63.1170055657
49445 22 44.8691498243 24.7214053291 67.7990513379
49446 22 43.6232919979 26.270051787 66.3856635644
49447 22 42.96102956 22.2009729294 64.5751054078
49448 22 41.8900913324 24.3358338927 64.741793496
49449 23 44.3171709194 24.0771025505 65.4497034014
49450 24 43.0552242316 27.8650940315 66.0005598275
49451 20 5.6164248459 50.4951066502 62.5196598131
49452 20 96.6866956758 50.4270096086 61.1889613044
49453 21 5.2356613601 51.947407019 62.9771634266
49454 21 96.638709711 49.3982578724 60.0095168016
49455 22 6.538325963 50.6364454276 61.4480668062
49456 22 6.1010269663 49.7914995799 63.6287623168
49457 22 95.3818141773 50.3799590427 61.7580580095
49458 22 3.4458466101 51.6697806185 60.4740359071
49459 23 4.2880648345 49.830505715 62.1127612813
49460 24 4.7245219723 47.903958092 69.5597527318
49461 20 56.65657936 86.0294151195 16.8619964932
49462 20 57.1274591781 87.9480118517 14.7831659254
49463 21 55.2614318654 86.1253870491 17.6050773981
49464 21 55.9828115153 89.0512213422 14.5851419733
49465 22 57.5458631167 86.6577225765 17.7244343007
49466 22 56.8079269058 84.662890832 16.7417977315
49467 22 58.0276871022 88.6504029034 15.5889185582
49468 22 57.5858046507 87.656635087 13.4772554881
49469 23 56.4830628597 86.7128175731 15.4471120813
49470 24 58.4989410799 84.1039899752 16.2796171234
49471 20 20.6448432801 37.6869698091 73.3705679465
49472 20 20.1640482334 40.4569666415 73.3411028805
49473 21 19.1865563582 37.196914313 73.5225702716
49474 21 18.7740454329 40.5312373161 73.9091706468
49475 22 21.4618207 36.7520385849 74.0874576816
49476 22 20.9123673723 37.7614275634 72.0298606694
49477 22 20.9606339567 41.5236020341 73.7251776785
49478 22 20.0484329264 40.485215689 71.937162636
49479 23 20.6042469668 39.0703312772 74.0115968289
49480 24 22.3289355022 42.6672207581 73.0478553179
49481 20 81.7490296451 80.8415056094 71.6694514641
49482 20 79.11167238 81.5991787376 72.4842774664
49483 21 81.8378925429 81.8131980113 70.4490364885
49484 21 78.2125669347 82.2138293703 71.3303693543
49485 22 82.4757410689 79.6948936089 71.2033421805
49486 22 82.3063403238 81.5377230283 72.8268205523
49487 22 78.2104155171 80.7973547803 73.2853531046
49488 22 79.6795530666 82.6962145952 73.1810561246
49489 23 80.1852297246 80.6705146862 71.7469960349
49490 24 32.8937986448 19.8013940707 62.8545326278
49491 20 60.8431443223 80.3776412832 18.0791375726
49492 20 60.2005252618 83.0167758063 18.7968691667
49493 21 59.4222733574 79.907696864 18.6660068572
49494 21 59.0933870959 82.7718883681 19.8157056742
49495 22 61.6704111304 79.2980038456 18.4865973437
49496 22 60.7887976449 80.6101814556 16.7041011549
49497 22 60.8036704878 84.21277687 19.3619436564
49498 22 59.5665118714 83.1622303389 17.5345483193
49499 23 61.0392039367 81.676162069 18.9148229709
49500 24 66.4080195986 82.5007162201 20.3629140445
49501 20 26.9464387486 6.0056069221 15.1721983377
49502 20 24.4340507797 6.1836507532 16.3849430421
49503 21 27.1860879528 7.588975388 14.8434056161
49504 21 24.2362139074 7.6999698243 15.9545659974
49505 22 26.4363657156 5.3271433748 14.0376529833
49506 22 28.2226035001 5.5506195316 15.5792839493
49507 22 23.8905840051 5.426071165 15.3004415301
49508 22 23.8379210457 5.9049018739 17.6248143154
49509 23 25.9805458201 6.0538735065 16.3554779761
49510 24 23.124211667 4.1826453758 18.1584594013
49511 20 42.3043795156 56.2140421292 39.9014332208
49512 20 43.4538912528 53.9473834576 38.6333129001
49513 21 41.0689046173 56.5412446727 39.0389954132
49514 21 42.270143915 53.5661148563 37.7855608556
49515 22 42.7244671722 57.5245360212 40.3494893052
49516 22 41.7623158394 55.4087571959 40.9287818586
49517 22 44.585162711 53.6894004344 37.8144646824
49518 22 43.4049698891 53.0969187562 39.8311847616
49519 23 43.3075948612 55.4939720379 38.8829708728
49520 24 43.8650926197 50.0275942682 44.9375274856
49521 20 11.0036117427 16.2906548306 69.9503753223
49522 20 10.4086886733 14.2545719937 71.8606470041
49523 21 12.4517963562 16.3340573407 70.4624126931
49524 21 9.2133236808 13.356589027 71.3073585408
49525 22 10.5949359529 17.6909470193 69.8722695122
49526 22 11.0657877091 15.5329817025 68.7398755753
49527 22 11.5647762649 13.5324440246 71.5343798595
49528 22 10.1603309051 14.3667263246 73.2481242275
49529 23 10.1949687272 15.6431716957 71.1748125133
49530 24 12.2753614112 8.5112974347 76.5059315986
49531 20 11.6317601818 12.7296846684 65.7418284852
49532 20 10.886022744 11.6276724885 68.2485105207
49533 21 10.5978076276 12.2166090048 64.7046581588
49534 21 9.7695586507 10.5876679033 67.8578879302
49535 22 12.8954373577 12.7898308192 64.9517905544
49536 22 11.1841905049 14.017916066 66.0780108584
49537 22 11.6223687766 11.0317017723 69.3590161228
49538 22 10.2186623819 12.8405294408 68.6038685718
49539 23 11.6753217097 11.658521945 66.9445644212
49540 24 8.2545678461 19.0773953038 66.4573151219
49541 20 95.7996568765 82.2024175034 76.8657795645
49542 20 96.4794112743 83.753963698 79.1358992122
49543 21 94.2756114103 82.575548134 76.5979748526
49544 21 4.4273925042 83.4473399308 79.5339114541
49545 22 95.7576574648 80.9666619854 77.5542331722
49546 22 96.4129044108 82.0727712126 75.6379749374
49547 22 96.314593984 85.1566879238 79.425405179
49548 22 95.7125712367 82.9376410573 79.9995530383
49549 23 96.3613639301 83.4585647179 77.5977292222
49550 24 3.5365569207 86.7611776974 80.0642826438
49551 20 24.8565704735 38.6761541708 73.0839617164
49552 20 23.5189500128 40.2799891652 71.1193433571
49553 21 26.3354361717 38.7049644576 72.5605124787
49554 21 24.7613468631 40.8439411762 70.3885161781
49555 22 24.6848312311 37.3484489386 73.5264054072
49556 22 24.8036268944 39.7299745981 74.1064462797
49557 22 22.4599848914 40.1528684515 70.1302525353
49558 22 23.1547056719 41.3397961456 72.0447335122
49559 23 23.9650417594 38.9319857764 71.780763936
49560 24 22.312566021 41.3272618 65.6637226751
49561 20 36.8949675405 61.6928607045 63.066400484
49562 20 39.1989486292 60.857362386 64.4613608987
49563 21 36.7682209863 61.2921358057 61.4739773564
49564 21 39.3416905049 59.5829748925 65.3350234934
49565 22 37.4799660273 62.9884817536 63.0416124125
49566 22 35.5661398296 61.6135388758 63.5774089159
49567 22 40.277557128 60.9046935715 63.538215701
49568 22 39.1646194887 61.9465408926 65.3644885595
49569 23 37.8067008713 60.5666404005 63.6524279096
49570 24 37.5742542388 64.7708844025 63.3119427014
49571 20 64.8184962078 12.7774835534 87.3266263468
49572 20 65.2621559172 14.3810379281 85.062680332
49573 21 63.9041437599 11.483013045 87.3975295852
49574 21 63.8287506067 15.0661240998 85.0648317495
49575 22 64.1375257914 13.8261592866 87.9316423705
49576 22 66.0293701144 12.3677133469 87.9048899613
49577 22 66.2025124551 15.2320638688 85.783031043
49578 22 65.5972158117 14.2614939457 83.6512568962
49579 23 65.003424575 13.0092754067 85.7841535217
49580 24 60.6978768695 12.7218273174 94.1406333456
49581 20 70.2852481369 48.9967846544 33.0340149434
49582 20 68.7266864504 48.6881030096 35.3039475113
49583 21 69.4125209412 50.0011224787 32.358282761
49584 21 67.9942690933 50.0463022467 35.6734300861
49585 22 69.9655287849 47.7392343415 32.4614572623
49586 22 71.6231492174 49.4010640692 32.7018547856
49587 22 67.7701475112 47.9247239481 34.5404749099
49588 22 68.9072184427 48.0660627254 36.6127576852
49589 23 70.0715094829 49.0993043764 34.6244737332
49590 24 70.1969464786 47.3710613252 38.0434503389
49591 20 76.1971564139 73.1724504545 60.4604726227
49592 20 75.7737013212 75.3205940826 58.5035245346
49593 21 74.9471828323 72.4906381791 59.791101153
49594 21 76.2504741525 76.7318304386 58.9365206964
49595 22 75.7017691439 73.5902931537 61.690709287
49596 22 77.1076737261 72.0741050384 60.6884293404
49597 22 76.0883695191 75.1879545152 57.1331651116
49598 22 74.3883755153 75.2861714022 58.8592567453
49599 23 76.6258497406 74.2929648251 59.3338781591
49600 24 77.5819209804 67.412263883 58.3414199012
49601 20 86.4315431168 75.2273348099 7.8799873471
49602 20 85.2881114726 77.4760338222 9.1403906267
49603 21 87.6335307336 74.837928238 8.7848922658
49604 21 84.4988218608 78.3453000419 8.1839639353
49605 22 86.6880295016 74.9544789439 6.5063727358
49606 22 85.2878308529 74.4261656318 8.3481545084
49607 22 84.3056619831 76.6089190201 9.7165028238
49608 22 85.8133379682 78.3951568046 10.1085939906
49609 23 86.3530631471 76.787954374 8.1841229532
49610 24 90.7073451364 94.7090752715 12.208583282
49611 20 91.0427791904 4.7804120579 9.1060147163
49612 20 89.5534370243 3.3234060713 11.0089622245
49613 21 90.9729048908 6.2036028122 9.732862951
49614 21 88.8474914566 4.3110382321 11.9460168042
49615 22 91.0622354881 5.0183214202 7.7176769259
49616 22 92.2631941661 4.2703390249 9.6419515296
49617 22 88.6023233988 95.8472686817 10.7520642641
49618 22 90.7289528516 96.4041116609 11.706330184
49619 23 89.7543607131 4.1203927066 9.623346445
49620 24 32.9322435405 30.2895545016 53.4145802307
49621 20 41.2571068808 14.7912103561 66.3568532775
49622 20 39.3687235338 14.973800226 68.4020094841
49623 21 41.9471506667 13.4389976722 66.0745498824
49624 21 38.3000302636 13.9936892339 67.8487210208
49625 22 42.4229880991 15.6345660256 66.3176600626
49626 22 40.3360195607 14.8736190013 65.2872246084
49627 22 39.3638594594 14.7045924158 69.7974375983
49628 22 38.9604219037 16.3176878595 68.0651723317
49629 23 40.7084018722 14.5569864656 67.795496822
49630 24 44.0585331171 23.6257725698 69.0845700786
49631 20 51.4753111823 80.0103101259 78.9783780334
49632 20 53.4665884108 79.4217571232 80.9621720706
49633 21 50.4320607628 80.8763959893 79.8019032458
49634 21 54.9499440239 79.9663463765 81.0512220481
49635 22 50.9660800083 78.6534204474 78.9627568714
49636 22 51.3655888885 80.6766883191 77.713438069
49637 22 52.8540891957 79.8610204577 82.1346946213
49638 22 53.5920254065 77.9881647329 80.7775243231
49639 23 52.9544575002 80.2027216845 79.6950806887
49640 24 50.7562700297 77.2512574609 77.8512223305
49641 20 57.0925687983 73.6276155708 26.0201131946
49642 20 58.7958366983 75.6567764557 25.3435391531
49643 21 56.4988711015 72.5013952667 25.0463629151
49644 21 59.6979354202 75.2676505035 24.2471580748
49645 22 55.8756147987 73.9640785636 26.6951905977
49646 22 58.1371287763 73.0350403527 26.7564592272
49647 22 58.4880904524 77.046030937 25.1283974007
49648 22 59.504307843 75.3597872975 26.5474911077
49649 23 57.5432439997 74.7946192678 25.1052930473
49650 24 59.0482073279 73.9234822503 28.1144713845
49651 20 84.4811428212 40.697270625 55.5458866781
49652 20 85.3886668569 41.1408367946 52.9277986308
49653 21 84.2076321759 41.9684777622 56.4306805199
49654 21 85.5028790654 39.6296998335 52.6207071642
49655 22 85.8363487817 40.3754933953 55.91789483
49656 22 83.4455626729 39.7537337308 55.936135109
49657 22 84.8920635683 41.6843035692 51.7250626949
49658 22 86.6597804541 41.6467940723 53.3866118029
49659 23 84.3111808368 41.1957447114 54.0735687724
49660 24 87.2938873844 39.7088345824 56.9140011438
49661 20 46.08077205 35.4973880087 44.6636426807
49662 20 43.9332832012 35.3015154741 43.0221111097
49663 21 46.0193163407 34.0769847432 45.2466768298
49664 21 43.7626664375 33.7581072502 42.6063262882
49665 22 45.4431106038 36.3393405798 45.6778021937
49666 22 47.4929438049 35.8001766403 44.5160367306
49667 22 43.1307109247 35.4357452196 44.2052972082
49668 22 43.4047828094 36.0378615068 41.8759668086
49669 23 45.4667761965 35.4383643366 43.1843092831
49670 24 41.4666362397 35.6622988389 45.0012281523
49671 20 45.8698395927 84.1968750883 72.3641722446