ITEM: TIMESTEP
14000000
ITEM: NUMBER OF ATOMS
4000
ITEM: BOX BOUNDS pp pp pp
3.23005382 96.76994618
3.23005382 96.76994618
3.23005382 96.76994618
ITEM: ATOMS id type x y z
49081 20 9.0855762498 33.9705363457 16.4795118733
49082 20 10.281998243 32.1055379718 14.722645615
49083 21 9.5487670888 35.086934961 15.4956592855
49084 21 11.8049586465 32.1770024496 14.4530636452
49085 22 9.2594482017 34.5373880934 17.8027271906
49086 22 7.7851940202 33.5713080851 16.0177989646
49087 22 10.0521426656 30.7137579134 14.7325608436
49088 22 9.6715662595 32.8568503873 13.6271063957
49089 23 10.0447530141 32.7602236785 16.1774715609
49090 24 7.7624918883 43.9411405521 18.6382255092
49091 20 44.8771007151 50.6753580228 55.2710664744
49092 20 45.1885885567 51.2576438528 52.5910550184
49093 21 46.0144522663 49.5697164951 55.3344865214
49094 21 44.5437245387 52.6786083576 52.4518676585
49095 22 44.0032510407 50.2241215821 56.2706337641
49096 22 45.5564809533 51.8298273743 55.6264245254
49097 22 46.5782171976 51.453797007 52.6561587834
49098 22 44.785057461 50.5643261706 51.4241448612
49099 23 44.3904126552 50.6850861716 53.7793858109
49100 24 48.6154225133 51.4430399194 52.9408942158
49101 20 12.0873181656 15.6590734774 80.9651653471
49102 20 12.8938471795 14.2947006075 83.3402367541
49103 21 13.4702399962 15.308392421 80.2991613135
49104 21 14.4863638469 14.2927362697 83.4110464526
49105 22 11.6339957853 16.9126951148 80.5148643053
49106 22 11.1344272821 14.6901872724 80.5860481634
49107 22 12.4413760122 14.3687842022 84.727246278
49108 22 12.5795905571 13.0478138423 82.7435457807
49109 23 12.4514596126 15.5719878376 82.5048319754
49110 24 11.0942425444 21.7899586424 85.1567814637
49111 20 90.5318642984 70.999518755 88.6094324306
49112 20 88.0524959115 71.6223073583 87.149181171
49113 21 90.3177514848 69.5417930725 89.2279181989
49114 21 87.1974477554 70.3158356817 87.1907128832
49115 22 90.1669651783 71.8781389639 89.6173247708
49116 22 91.9524546436 70.9885745876 88.3001895464
49117 22 87.5813354737 72.4752976368 88.1362141151
49118 22 87.8246327337 72.1333157903 85.8051999975
49119 23 89.5304262108 71.0509656958 87.3708707159
49120 24 89.6672750733 72.4844645462 91.2251819805
49121 20 44.4888166219 53.4722008044 58.8901249098
49122 20 45.821760088 55.9076054419 58.0133754987
49123 21 43.8989540607 53.6146620604 60.357672281
49124 21 45.8019296309 57.0474825702 59.0932000161
49125 22 45.7462733949 52.8580178711 58.9840389617
49126 22 43.4456597423 52.6948842989 58.3390814039
49127 22 47.1009181161 55.289587373 58.2232790171
49128 22 45.6741541379 56.5955913502 56.7677047521
49129 23 44.5560718045 54.9770705927 58.362466377
49130 24 45.7356098472 49.0309267151 50.7399940884
49131 20 78.5723213607 53.2217945125 31.1229949425
49132 20 80.5679949642 53.6561002328 33.1741377022
49133 21 77.0846629126 53.5016658705 31.5072568203
49134 21 81.9158112732 52.8624142461 32.7975460955
49135 22 78.5513684248 52.038701954 30.3309926739
49136 22 78.9902575998 54.3896400686 30.3779496998
49137 22 80.8858435184 54.9747320954 32.7635911146
49138 22 80.4785708271 53.4982984344 34.5854675981
49139 23 79.3562791986 52.9721365398 32.4495776959
49140 24 79.4124966739 58.7246528402 28.1156874031
49141 20 44.8047008384 31.9478297133 12.3516338394
49142 20 47.0544287896 31.0544302014 13.5596641333
49143 21 43.7230990631 30.8304956991 12.9293923386
49144 21 46.5869164076 29.672191212 14.1562615668
49145 22 44.3363465974 32.1829890027 11.0019186706
49146 22 44.6758964066 33.1163300487 13.207112279
49147 22 48.4111313884 30.7468710353 13.3949403829
49148 22 46.8847474248 32.0578326267 14.5785941808
49149 23 46.177211679 31.2533895524 12.2680933616
49150 24 46.3001230976 33.783456561 14.8656681104
49151 20 56.9510429411 23.2291634262 43.0081736658
49152 20 56.8863133356 20.7054571304 44.2691849547
49153 21 58.1989586451 22.7028144519 42.2768787873
49154 21 55.6295113419 20.3097833857 45.0855075953
49155 22 57.2646822002 24.6004582482 43.2858936062
49156 22 55.7926449142 23.1549862916 42.1701497701
49157 22 56.5710838984 20.1491753905 42.9996615355
49158 22 57.9229224228 20.0651765672 44.9656829932
49159 23 56.9966904086 22.3409086084 44.3103425073
49160 24 54.6969186151 22.0503737027 41.1811524882
49161 20 27.107701523 51.9594736651 33.5313665511
49162 20 26.2108410351 50.0084185903 35.5819480714
49163 21 27.1691572323 51.3752234975 32.0961839826
49164 21 25.1399028075 48.8463725075 35.4409834536
49165 22 28.4164181571 51.7958723934 34.0543480893
49166 22 26.7557109081 53.3260914925 33.3365229553
49167 22 27.4468771727 49.2921836345 35.4810185275
49168 22 25.9535127912 50.5796667129 36.8591417617
49169 23 26.0077659288 50.9975094121 34.2681802832
49170 24 85.1203009057 64.5622904426 31.5115596554
49171 20 5.0441945544 82.0726776727 36.9847658371
49172 20 3.9210816456 84.0570329492 38.8145932115
49173 21 4.4269341587 80.7821077778 37.5819245099
49174 21 3.78468271 85.5082108393 38.2379197751
49175 22 6.3123522911 81.9956008014 37.5728511404
49176 22 5.0672801998 81.8596873378 35.5433160959
49177 22 96.261556865 83.8214995003 39.5333537444
49178 22 5.1303728572 83.9199970069 39.5314829465
49179 23 4.0240092016 83.2007687746 37.4469464453
49180 24 5.9957291094 83.2992662812 41.0499160192
49181 20 8.0981597921 10.1686746635 73.6358470813
49182 20 5.6361430552 11.456943477 72.9958471378
49183 21 7.7310063606 8.6770501239 73.7408923804
49184 21 5.0256549477 10.2088687552 72.3251661095
49185 22 9.125405536 10.3000888582 74.6034237279
49186 22 8.5281626773 10.3362046107 72.28999511
49187 22 4.5943050881 11.8856835736 73.9313396012
49188 22 6.0661272324 12.4324897224 72.0611029934
49189 23 6.7489216767 10.8969294954 73.9287204843
49190 24 7.1146813638 10.0981268766 80.1011373614
49191 20 81.9756768043 85.9049135228 6.5390649282
49192 20 82.1899766977 83.092636659 6.4248059497
49193 21 83.2787810448 86.2371672204 7.0991630957
49194 21 82.3249547624 82.2991377521 7.7355898153
49195 22 81.0616049762 86.8246912844 7.0379786521
49196 22 82.229731152 86.1387632537 5.1594731177
49197 22 81.4078896577 82.3275738794 5.6031983051
49198 22 83.5072054619 83.2266793247 6.0263634242
49199 23 81.5852412936 84.4353082739 6.9561873702
49200 24 85.4456326513 76.6172440705 3.8758878466
49201 20 59.9823902329 61.656005987 86.1418500701
49202 20 57.6332293761 61.4129893466 87.6846035148
49203 21 60.7908555225 60.2679675242 86.0346533535
49204 21 56.9896749167 62.7301245709 87.3060475704
49205 22 60.9903761129 62.6034715567 86.1029374749
49206 22 59.2019869109 61.7095108054 84.9256443897
49207 22 57.0260619348 60.4213729477 86.8253460636
49208 22 57.3515807602 61.3636002834 89.0551500177
49209 23 59.1743926426 61.6864999919 87.5047263018
49210 24 57.9834427331 60.9354681961 90.8073392814
49211 20 51.7830574281 57.5114404363 86.2517594437
49212 20 53.3145860858 59.9364621457 86.0716951509
49213 21 50.2388073452 57.3788944088 86.6146006861
49214 21 53.3974624304 60.6036821979 87.5069712592
49215 22 52.3756326462 56.9218584947 87.3940686092
49216 22 51.8741652833 56.8244834668 85.0074917955
49217 22 54.5096517505 59.1729895443 85.904726443
49218 22 53.1442499418 61.0231150752 85.1684739502
49219 23 52.0083950288 59.0408176764 85.9816162345
49220 24 53.6446883659 56.0379065119 88.3100112351
49221 20 86.3129345333 80.1747532567 76.022423895
49222 20 83.8632182922 79.7678547249 77.3743559592
49223 21 87.3512273385 80.7350572119 77.0636164368
49224 21 84.4659893586 79.7569105575 78.7968171024
49225 22 86.5632472852 80.9485152463 74.8212781372
49226 22 86.5551093146 78.7708130123 75.9147594788
49227 22 82.5995878864 80.4576178912 77.4462881365
49228 22 83.8033527611 78.4163903601 76.946972191
49229 23 84.9041302144 80.5448906108 76.5812312119
49230 24 81.8406051997 80.9616108312 75.7706145047
49231 20 94.9092506411 74.3880013557 95.6240824986
49232 20 95.6484028706 74.7409273696 92.917599253
49233 21 94.5858832333 72.8387001186 95.7404461247
49234 21 96.3384466565 76.0450605489 92.5918933478
49235 22 93.6149391506 74.9084573168 95.2780784367
49236 22 95.3269998004 74.651129073 3.3866629848
49237 22 96.357154635 73.8727836286 92.0261640788
49238 22 94.2922615111 74.886568982 92.5389497687
49239 23 95.9467015873 74.5553442232 94.4121796531
49240 24 19.4005756319 45.8075420244 6.1654104742
49241 20 8.9911477285 82.1000848612 33.1719862846
49242 20 10.3892978536 81.5011489304 35.5361135241
49243 21 8.891668053 80.7243001243 32.4926995863
49244 21 10.7076328153 80.0148935807 35.349407899
49245 22 9.2537516223 82.948398145 32.0209779091
49246 22 7.7687497071 82.3909003865 33.7716705346
49247 22 11.5931375603 82.119354079 35.9606910956
49248 22 9.2523859399 81.6401492104 36.3890102627
49249 23 10.2634025124 82.0686554573 34.0682855332
49250 24 8.1118727403 82.6706782045 37.3824039195
49251 20 66.2520885981 66.2359061967 77.1029031916
49252 20 66.3498377856 65.3720652907 79.7160336246
49253 21 64.8649855343 67.0854354991 76.8283636075
49254 21 67.8142048005 64.6365611171 79.7802019907
49255 22 65.9147837462 64.8405716224 76.7559637308
49256 22 67.1660668863 66.9400745064 76.2156773126
49257 22 66.1151461956 65.9524803228 80.9738645571
49258 22 65.4267861278 64.2967306882 79.5123972789
49259 23 66.475461861 66.4687269888 78.6035636847
49260 24 65.2769352202 63.2374849471 77.5149464174
49261 20 30.0788091241 80.8959458268 71.0323512572
49262 20 32.1407089714 81.807398538 69.241530018
49263 21 30.2465261511 81.5735488071 72.3683815398
49264 21 33.1153946498 82.6966822946 69.9178234398
49265 22 30.6890633818 79.62445807 71.2023132416
49266 22 28.6615862149 80.9377581587 70.9078496605
49267 22 32.7159793094 80.5048555368 69.338811506
49268 22 32.0390311084 82.326170781 67.8865111373
49269 23 30.774933003 81.9141275551 70.0411090179
49270 24 34.520363833 73.7376184842 65.7479085782
49271 20 6.0995770979 18.479394772 88.7881871649
49272 20 4.5919759448 17.6751387775 86.4060067262
49273 21 6.4526714836 17.0661940782 89.4380087971
49274 21 3.9945020425 16.3233002531 86.7721218649
49275 22 5.8548954475 19.3387457631 89.9115077322
49276 22 7.2645322714 18.8736654183 88.0629723794
49277 22 3.5287818848 18.3608797284 85.6919231879
49278 22 5.7867235739 17.4010668929 85.6010959524
49279 23 4.8323173442 18.3714497362 87.8643871879
49280 24 8.5072658653 19.6365767804 86.9083159481
49281 20 5.4589223752 76.7226635292 12.7398805167
49282 20 3.7221251008 76.3427980263 14.9782901408
49283 21 5.5134841944 75.46183932 11.8484734044
49284 21 3.2766654031 74.8607519717 15.0830548203
49285 22 6.5498874937 76.6238854028 13.6394536615
49286 22 5.4406727422 77.798652911 11.7976531809
49287 22 4.8783857412 76.2638503571 15.7525198299
49288 22 96.1687652918 77.1528534941 15.485650517
49289 23 4.0652874207 76.56551651 13.4343206775
49290 24 5.1445535049 79.2239202509 11.0317578963
49291 20 30.8478005792 28.1089525309 50.2870739296
49292 20 31.6656198581 30.0925594883 48.6802456587
49293 21 32.0505365151 27.6435915664 51.0385734249
49294 21 30.2473680101 30.7219894239 48.3676353384
49295 22 30.0181017339 26.9844159449 50.0221689545
49296 22 30.2060233777 29.0231178989 51.0930136422
49297 22 32.1492211016 30.9334831206 49.7622215936
49298 22 32.3192766259 30.0995749802 47.413809056
49299 23 31.4502910259 28.5944245722 49.0001520905
49300 24 30.860147845 23.9082630448 46.9961534366
49301 20 54.6942059582 24.3519227542 70.9790335186
49302 20 54.1016307401 25.3926475966 73.573549513
49303 21 53.9958371218 22.8804467075 71.1017578574
49304 21 54.8645421022 26.7389672674 73.7755021406
49305 22 56.0268688046 24.1654977488 71.5076274503
49306 22 54.5724170183 24.7809902405 69.6575019193
49307 22 52.9033847189 25.4877776672 74.3236459098
49308 22 54.9353518007 24.3456555814 74.1061656601
49309 23 53.9373746891 25.3459711903 71.9784137286
49310 24 56.6178538446 23.0827734947 73.744727516
49311 20 71.072479871 14.7116079077 89.0136183055
49312 20 70.1457801574 12.0344774804 88.8361731297
49313 21 71.7821670344 14.48365119 90.3433814153
49314 21 70.9468557956 11.8412801867 87.5188508256
49315 22 70.4510008262 15.950543782 89.1908764015
49316 22 72.0749468975 14.6212483717 87.9780381572
49317 22 70.9624769576 11.4503208526 89.811794207
49318 22 68.8935616184 11.4371972057 88.4906367673
49319 23 69.9307319449 13.6516138475 89.0318585845
49320 24 68.088370225 14.4858026076 88.9905139521
49321 20 89.9682864469 72.7832309624 81.4792605956
49322 20 87.1140101714 72.5508778698 81.4425929578
49323 21 90.6026739969 71.436630672 81.8102982746
49324 21 86.9337587989 73.8992554182 82.2353435455
49325 22 89.8533259192 73.4261306426 82.7764718228
49326 22 90.8252054008 73.4675688149 80.5579861957
49327 22 86.2322096062 72.8024066404 80.3356418716
49328 22 86.6899002995 71.5601033299 82.3837913547
49329 23 88.5528407957 72.3717489759 80.8628327049
49330 24 72.0682120252 7.6721697683 41.7406145844
49331 20 79.3967819719 40.7488111057 6.9297904126
49332 20 79.7630841904 43.349500733 7.8934196757
49333 21 80.9782609321 40.613833041 6.9331110787
49334 21 78.7089831434 43.9112077866 8.8701819397
49335 22 79.082113774 40.2487468411 5.641559015
49336 22 78.9627568714 39.9932893951 8.0569928854
49337 22 80.7086789623 42.8104303333 8.8005601978
49338 22 80.1703568818 44.513978853 7.1897097115
49339 23 79.0732274843 42.2773464867 6.991115166
49340 24 60.4943340637 34.3877242656 55.0657464106
49341 20 81.2557002528 57.1913469246 25.9367691505
49342 20 82.543370411 55.7222093752 27.9685491524
49343 21 82.2375885029 58.2447931924 25.3355882623
49344 21 83.3299473659 57.0115632515 28.5344655012
49345 22 80.5669660254 57.9081431198 26.9361493605
49346 22 80.4693103777 56.7649920952 24.8622764069
49347 22 81.3279130497 55.5947145019 28.7109752781
49348 22 83.4762437576 54.6414494589 28.0686368373
49349 23 82.1774423521 56.0814025619 26.5032467386
49350 24 76.7827161401 60.4036003681 29.0860702465
49351 20 53.6747146713 86.8726772491 31.3577800723
49352 20 56.0721421125 86.2024639204 32.7537694259
49353 21 53.3914758773 88.312723892 31.8827259482
49354 21 56.6237468578 87.414179686 31.8436262732
49355 22 52.3520605934 86.2942265548 31.1561080644
49356 22 54.5074067931 86.9532150965 30.181422386
49357 22 56.5460152072 86.4572665872 34.0791361607
49358 22 56.6709845034 85.0274157926 32.1797151065
49359 23 54.4819639424 86.1937647104 32.6121500289
49360 24 56.5679970819 76.9380859013 27.519651209
49361 20 35.5838188692 88.2248899331 95.1516125022
49362 20 35.7887647734 85.7241944507 96.4487301896
49363 21 35.0137867652 89.1912505611 96.176342023
49364 21 35.4536113391 86.0870356932 4.4504407336
49365 22 35.1146227692 88.7118586127 93.8768508492
49366 22 36.960539005 88.4716481691 95.2958510163
49367 22 35.221632406 84.4136070189 96.2857836971
49368 22 37.1957918343 85.7711514767 96.3522905606
49369 23 35.0386683766 86.7849368301 95.5702970604
49370 24 39.0417080701 85.1078601 95.9406214943
49371 20 8.2939949107 17.1963080685 79.8313683119
49372 20 8.3445158066 17.2511224454 82.5734902564
49373 21 7.1007252119 17.6867377241 78.9147709066
49374 21 8.0341410897 18.7865797785 82.8670184386
49375 22 8.6323941793 16.0685911262 79.0855747501
49376 22 9.2680725798 18.3076555296 79.7874045624
49377 22 7.6987912216 16.6417100467 83.6440543244
49378 22 9.8078819446 17.1168926999 82.6123093117
49379 23 7.6850221495 16.8145717678 81.2143556204
49380 24 7.0394752903 16.1480064948 85.2987750203
49381 20 27.4757809995 49.4971295387 73.4439967621
49382 20 29.8527232042 48.051657582 73.83686431
49383 21 27.4852285286 49.9290032217 74.9471828323
49384 21 30.4318286778 48.9516048864 74.9545724838
49385 22 26.5138167465 48.4897048979 73.3401674815
49386 22 27.0694437071 50.673487225 72.8128831083
49387 22 29.1896189073 46.9716459848 74.4761159344
49388 22 31.0213170795 47.6729145578 73.133818479
49389 23 28.9130214456 49.0355101699 73.0031432494
49390 24 24.5506014856 45.7918273225 68.8597937173
49391 20 28.2780726563 24.4787628483 48.4842795842
49392 20 28.5958276706 25.7350971426 45.9430813284
49393 21 27.312834507 23.3018439226 48.2440691406
49394 21 29.3526589397 27.0749625607 46.2832859169
49395 22 27.9997914765 25.044679197 49.7635311521
49396 22 29.5497474929 23.8708470878 48.2595967627
49397 22 29.6853803368 24.8511451598 45.5235549112
49398 22 27.6188034949 26.2011128863 44.9907516843
49399 23 27.9155120335 25.4422237396 47.3549724637
49400 24 31.0565816189 24.8069007907 43.9815497856
49401 20 5.2349691649 80.9245690339 13.7888368696
49402 20 6.2934011089 79.8609269178 16.128737277
49403 21 3.7515873606 80.9954722723 13.9386877772
49404 21 5.0256455937 80.0155483599 17.1717070768
49405 22 5.4778454954 80.5804357699 12.4308153583
49406 22 5.7754800789 82.2150453889 14.1618739603
49407 22 6.7152192535 78.579898092 16.537132447
49408 22 7.0968900763 81.0091290966 16.4818503706
49409 23 5.7220781543 79.8103218361 14.6841071794
49410 24 6.5151935477 77.0491177535 15.5767583722
49411 20 8.0788718663 43.6490154683 15.4574014695
49412 20 10.3877918613 44.2299917398 14.0949929373
49413 21 6.8959383255 44.2991177202 14.6939288681
49414 21 10.136057303 45.474165848 13.2252590181
49415 22 7.6853682471 43.6052387987 16.8401081584
49416 22 8.3142275894 42.3723830174 14.8751156396
49417 22 11.7262261191 44.3710498974 14.5945895024
49418 22 10.1935562748 43.1179894994 13.2172145874
49419 23 9.3379468794 44.4379309205 15.2157879275
49420 24 9.4298498236 41.1989250677 13.915396344
49421 20 32.0438016429 27.8791250153 43.6571534389
49422 20 32.8264499223 26.1762312749 45.6706931619
49423 21 30.6143250078 28.5575698546 43.9828593441
49424 21 34.2421761931 25.6493210613 45.0621226222
49425 22 31.9216385435 27.8901627226 42.2448881441
49426 22 32.977049149 28.8391249306 44.1229821029
49427 22 33.0877068416 27.3086252118 46.507407499
49428 22 32.3544476254 25.0385055642 46.3875828969
49429 23 32.0014280716 26.4373011145 44.3554287354
49430 24 32.9866837579 27.471010465 48.7211225916
49431 20 12.5879717315 19.4777460431 56.7971698182
49432 20 9.8556153517 18.9358694467 56.2271377142
49433 21 13.3920406462 19.8134607168 55.5192278088
49434 21 9.1403719188 18.9119232343 57.6608236444
49435 22 12.6792666664 18.0392895784 57.0119374111
49436 22 13.0321926803 20.1806983342 57.9825073342
49437 22 8.9280363631 19.6083277329 55.3430921915
49438 22 10.2048184779 17.5841244622 55.9009641095
49439 23 11.0744401492 19.8565826072 56.4454598229
49440 24 11.7807411684 13.3028035889 54.9804380288
49441 20 41.6990828722 25.9926124662 77.0291937564
49442 20 43.877814045 24.5830598283 76.088463059
49443 21 41.772231068 26.1409667355 78.5567001987
49444 21 44.7077935099 24.3612767435 77.3778169353
49445 22 40.3537921403 25.6438957475 76.7952504856
49446 22 42.1610764005 27.2126532823 76.5012546039
49447 22 44.0020350221 23.3830365492 75.3997288315
49448 22 44.4895649411 25.6788796673 75.447060017
49449 23 42.4576913992 24.6835216726 76.6025583074
49450 24 42.3297288265 28.9876662797 76.4463466871
49451 20 76.8024530573 47.6895646587 61.0767134336
49452 20 76.2633826577 47.3934173595 58.3060618219
49453 21 76.211842177 49.0633850578 61.2183328306
49454 21 77.4621899182 46.4637243693 57.8189060625
49455 22 78.2283751765 47.7248291981 61.0828870665
49456 22 76.3193195133 47.0709853505 62.2374499579
49457 22 75.1566186513 47.0766912839 57.4554100407
49458 22 76.7169575957 48.7769659074 58.1081314096
49459 23 76.093607753 47.0114004391 59.8442318118
49460 24 72.1675513909 45.1164692997 63.0461023273
49461 20 45.4239349258 76.1226051197 12.6508305391
49462 20 46.5785913571 76.7200444122 10.255966091
49463 21 44.0213042399 76.7691528557 12.600506077
49464 21 45.2756741964 77.2594889714 9.6090722574
49465 22 46.3381002939 76.9766243369 13.3441482213
49466 22 45.2301202689 74.8762795939 13.2919529614
49467 22 47.2848175444 77.8121226555 10.7993767417
49468 22 47.3082025175 76.064984546 9.1946157023
49469 23 45.9380301742 75.7143970294 11.2076409559
49470 24 46.539585222 73.5391268326 12.9884160107
49471 20 27.9918405856 45.1325581611 71.2991270302
49472 20 26.7607620623 43.5149728026 69.2742689803
49473 21 29.2969091638 45.5957677081 70.6373322918
49474 21 27.7862399022 43.2584864177 68.0871542064
49475 22 28.4492506593 44.9324763314 72.6614420226
49476 22 27.0125714525 46.1211812835 71.1796765877
49477 22 25.8958922175 42.3435727305 69.3734212662
49478 22 26.0305896625 44.6743062285 68.8922520599
49479 23 27.6651057416 43.7729558257 70.5458502771
49480 24 24.0727997154 42.6048296499 70.148773434
49481 20 80.7971677005 78.4350983386 73.9227339312
49482 20 78.9659372277 80.3014998109 74.6361626902
49483 21 81.0952793374 79.152549313 72.4961570328
49484 21 78.9580798768 81.1751624055 73.3726258242
49485 22 80.9708712806 77.1124442606 73.5396880719
49486 22 81.773443557 78.7896145306 74.9200562635
49487 22 77.6243880915 80.3718418099 75.1709302548
49488 22 79.8915144626 80.851420838 75.5590272682
49489 23 79.348983087 78.850134841 74.2213132676
49490 24 44.4674895265 23.7906834001 64.2463126862
49491 20 47.2671385048 71.2040904996 17.4648610994
49492 20 46.4597021539 73.5471712633 16.0378165016
49493 21 46.1133239325 70.2104162231 17.7727944251
49494 21 44.8734526593 73.8169403129 15.9372611173
49495 22 48.0944988527 71.0287032014 18.6458957804
49496 22 47.8145339549 70.6247979462 16.2898129716
49497 22 46.9617307562 74.8365251396 16.2072172467
49498 22 46.64565946 72.940845681 14.7718475984
49499 23 46.6429468031 72.6486270573 17.3552323456
49500 24 52.6889912857 74.816226983 18.4149457861
49501 20 31.3646084845 8.3160329094 21.1038435319
49502 20 31.7336233598 10.7424015932 22.5493154886
49503 21 31.4931322966 8.6243403946 19.6288129693
49504 21 31.1717292264 10.1102496467 23.8864682498
49505 22 30.0069704867 8.4225842007 21.4462930779
49506 22 32.0379086297 7.0453776576 21.3700580656
49507 22 32.8806095199 11.5797800636 22.8610839498
49508 22 30.6726939007 11.5359566241 22.0895669176
49509 23 32.2149796459 9.5367939826 21.6499294235
49510 24 27.3365000998 4.2568879884 25.3901220195
49511 20 37.7303723191 47.3135342914 30.0287652817
49512 20 40.4692203674 47.9058288898 30.5181659985
49513 21 37.5585395369 46.2487696967 31.1545178862
49514 21 40.9081095424 46.8223563166 31.5146464718
49515 22 36.9589488268 47.0345047925 28.9001129405
49516 22 37.3594866459 48.5319849293 30.6675492066
49517 22 41.6240638785 48.1347210064 29.7626442879
49518 22 40.1653092571 49.1169834161 31.2470288398
49519 23 39.2455314956 47.2766795738 29.6227086089
49520 24 39.7765574645 54.8680966181 29.5805221175
49521 20 7.5233290916 15.3849080529 68.7141521049
49522 20 8.0513430759 12.6994712832 69.0691359964
49523 21 9.0342415569 15.551689681 68.1477680566
49524 21 6.8685217831 11.6500472308 69.2177708853
49525 22 7.3035384065 16.5428383805 69.5580690137
49526 22 6.6370666734 15.5122158464 67.6051431411
49527 22 8.4784462245 12.608363428 67.6943801984
49528 22 9.0127741516 12.2942658235 70.0457860125
49529 23 7.4208467855 14.0609444165 69.5232721738
49530 24 12.5374414816 6.547895094 69.6425355365
49531 20 5.6872906684 14.3309940857 63.8543805372
49532 20 5.3946885311 12.2339325929 65.562138352
49533 21 4.4919724459 14.5634407182 62.8815656567
49534 21 3.8983514518 11.7916572738 65.4283763059
49535 22 6.8608328039 14.6868198362 63.1773387963
49536 22 5.3879349508 15.1560159363 64.998186341
49537 22 6.2305516552 11.1096579186 65.8946726694
49538 22 5.3654853767 13.1841014655 66.6304574627
49539 23 5.6204189993 12.7809445294 64.1564208496
49540 24 5.8521547286 19.184124321 68.3369992589
49541 20 8.7790460226 73.7547362845 80.0410847505
49542 20 11.4635286854 74.5986531933 80.2312513517
49543 21 7.9390858511 74.9746835606 80.4062644903
49544 21 11.1804302012 75.8912809659 81.0701171064
49545 22 8.9362959356 73.0795653414 81.3038732974
49546 22 8.0475640643 73.0812490595 79.0129877936
49547 22 11.6375503012 73.569153138 81.2057499503
49548 22 12.6284745049 74.9249203379 79.4565539632
49549 23 10.1133271091 74.3991326029 79.3825639083
49550 24 10.4007939063 72.5930643613 82.2373078832
49551 20 25.0608615984 45.2853088054 74.1342276278
49552 20 23.5530920735 45.5576969719 71.7238916814
49553 21 24.1352843635 45.4058817266 75.3224648804
49554 21 22.0511220219 45.8672204757 72.0485686478
49555 22 26.3296366984 45.8404680665 74.5830320313
49556 22 25.24195483 43.8800590024 74.0020557599
49557 22 23.7971376526 46.4058231759 70.6355550338
49558 22 23.7336240657 44.169845589 71.3835000131
49559 23 24.4313381228 46.1089275576 72.9631081754
49560 24 24.0497889019 48.994539697 67.5974728699
49561 20 37.2141256532 74.7835815605 67.0083586278
49562 20 38.8636081151 73.6289251292 68.9255522616
49563 21 37.7022168115 76.0952914711 66.246943904
49564 21 39.2286943149 72.0881360223 68.8241550183
49565 22 36.3832107894 75.1623245847 68.1034301477
49566 22 36.4275486983 74.0650081074 66.0508842896
49567 22 40.0862680481 74.2529297512 69.3229097243
49568 22 37.750483396 73.7206877637 69.8827459801
49569 23 38.5226552074 74.0978406096 67.5101066104
49570 24 35.5189957238 76.9098368538 68.3485982055
49571 20 70.0499017678 7.9302931012 88.0831769962
49572 20 70.3736433352 8.6115534913 85.451993364
49573 21 69.7447746389 6.4482564007 87.6448490606
49574 21 68.8061018191 8.6027981574 85.4849194061
49575 22 68.7396884955 8.5308753341 88.1516481974
49576 22 70.6257333451 7.6806351285 89.3724373326
49577 22 70.6037514704 9.8217164947 84.7853345511
49578 22 70.6437865444 7.3832343948 84.7829025139
49579 23 70.913462054 8.6068764967 86.9456383652
49580 24 60.9323813797 9.8038036053 95.5458831485
49581 20 75.2500650037 48.7367437537 28.959604312
49582 20 73.5759815502 46.4382815186 29.0138574496
49583 21 74.1203837237 49.7445425539 29.1935475828
49584 21 72.2585657062 47.1996962424 29.4398381194
49585 22 75.3514622471 48.7316925995 27.5187158101
49586 22 76.3632832627 49.2849810628 29.6200894919
49587 22 73.687387562 46.4791584516 27.6078593275
49588 22 73.5776652682 45.1699741181 29.6747167891
49589 23 74.7140814205 47.3826602719 29.6720976721
49590 24 74.9822602919 45.5331895201 30.8342372948
49591 20 76.5734674008 71.8765487858 61.0767134336
49592 20 74.8093985708 73.40237151 62.5575434695
49593 21 75.5204888326 71.1009159983 60.2435536123
49594 21 75.6622953094 73.4885217508 63.9315509484
49595 22 76.8060075733 71.1842600424 62.2580287342
49596 22 77.7081062952 72.0111526909 60.160396648
49597 22 74.2010151109 74.6948122027 62.4066636231
49598 22 73.8606234426 72.3215180537 62.6454709683
49599 23 75.9164431969 73.2851660248 61.3809987034
49600 24 80.409164227 71.7836636727 55.6187542543
49601 20 85.2536887922 78.9977407911 6.0997454697
49602 20 87.2530104515 80.8563784523 6.9078927238
49603 21 84.4781495446 78.6262938786 7.3536944968
49604 21 88.2200258587 80.9184889409 5.6303903518
49605 22 85.2044868088 77.783031749 5.3166949688
49606 22 84.493490087 80.0956185078 5.5822360152
49607 22 86.3230368416 81.9458375786 6.7190076191
49608 22 88.0741036266 80.8533851758 8.0311758752
49609 23 86.6462171697 79.4386878437 6.7472940826
49610 24 73.0859260541 8.6514576094 22.612361376
49611 20 68.4928367195 6.6495448951 19.6886785004
49612 20 70.5368704474 8.0623340133 20.9793419352
49613 21 69.2350757654 5.6439442822 18.7876087173
49614 21 69.6608693554 9.2733388758 21.510461444
49615 22 68.2836815202 7.7337751414 18.8300758284
49616 22 67.3047865467 5.9875256609 20.040107876
49617 22 71.5906908747 7.7685626274 21.9838668392
49618 22 71.0939940463 8.4933845453 19.7262815371
49619 23 69.563026628 6.8997360451 20.8643814075
49620 24 30.6875667436 28.1577803547 57.3961992889
49621 20 46.6328444947 15.9970331085 69.6366425233
49622 20 49.3559778411 16.4089827945 70.6349002546
49623 21 46.5249929988 16.601487893 68.1907028672
49624 21 50.4271031485 15.2387052012 70.9640671358
49625 22 46.0597255742 16.9429085001 70.4999221899
49626 22 45.8898571297 14.8047736405 69.5677036227
49627 22 50.0083250504 17.2038847998 69.6906150412
49628 22 49.0178311302 17.042060786 71.8605534642
49629 23 48.1618475752 15.6767525171 69.8973382033
49630 24 39.4255022485 24.5532206026 75.6446162697
49631 20 58.6860208646 79.7579394963 77.5339350156
49632 20 60.7714927648 77.9085622845 78.0493398225
49633 21 58.6708674021 80.5134612069 78.9687434245
49634 21 60.3650619325 77.7135316089 79.5875098125
49635 22 57.6249978656 78.8332976604 77.5372089118
49636 22 58.5454304064 80.7865041527 76.5427863162
49637 22 60.2817178884 76.6918889046 77.4281413973
49638 22 62.1674821184 78.0385827349 78.0683284207
49639 23 60.1538488555 79.2850018006 77.5576941483
49640 24 56.4372283124 77.5329996167 77.0839145935
49641 20 52.7532531917 67.3159177939 24.1731680199
49642 20 53.7857465236 69.6547892624 25.4787978375
49643 21 52.2192339462 67.4660493211 22.7384531509
49644 21 53.7007187614 70.784844702 24.4621127474
49645 22 51.8375911854 66.408580838 24.7502156159
49646 22 54.0569186715 66.816976008 23.9797275225
49647 22 53.410838635 70.3038625755 26.7030479487
49648 22 55.0860445673 69.1660433249 25.4091106177
49649 23 52.6662610918 68.6847805787 24.983878267
49650 24 55.7570062152 67.4267625663 24.621504724
49651 20 74.7147361998 33.9956985768 48.7127975412
49652 20 76.6345489506 35.2853330727 47.1507748787
49653 21 73.4708427112 33.910296655 47.7747795006
49654 21 78.1324032469 35.1332372077 47.3719967241
49655 22 74.5165251679 35.1635441329 49.4800117384
49656 22 74.6190448899 32.8161605341 49.4643905763
49657 22 76.5109827528 35.3669933988 45.7617074772
49658 22 76.4084630307 36.4953651203 47.9094769456
49659 23 75.9444116247 34.0471455176 47.7116400733
49660 24 74.2837979157 36.7935702971 50.3065302272
49661 20 58.885541455 36.924900306 54.3732705875
49662 20 58.5447756272 39.6287644346 53.9495348751
49663 21 58.7554274648 36.6017199779 52.8396840522
49664 21 58.4720015909 40.5177675716 55.3007186202
49665 22 57.688043753 36.5504601169 54.9911015765
49666 22 59.8755676758 36.0531085092 54.8685643175
49667 22 59.2013321316 40.463514434 53.0899968042
49668 22 57.1800285976 39.4117518843 53.4866994877
49669 23 59.3773742091 38.39871485 54.3461440187
49670 24 56.0243432275 35.1448361544 54.969868021
49671 20 54.3573688058 87.4777868128 75.2841135246