ITEM: TIMESTEP
14750000
ITEM: NUMBER OF ATOMS
4000
ITEM: BOX BOUNDS pp pp pp
3.23005382 96.76994618
3.23005382 96.76994618
3.23005382 96.76994618
ITEM: ATOMS id type x y z
49081 20 30.6954240945 15.7988220766 17.3862875899
49082 20 29.4519983054 18.0270358525 16.040903318
49083 21 32.0305189782 16.3352733593 17.8899999102
49084 21 30.5938397714 18.0626745515 14.9963433401
49085 22 30.9638835856 15.0485386 16.1975826378
49086 22 30.2250119758 15.0225345099 18.4781787534
49087 22 28.2830302706 17.644270613 15.343095721
49088 22 29.3277773283 19.3647498532 16.4920462189
49089 23 29.8690926854 17.1401841331 17.2579508575
49090 24 22.3378217919 29.9603876204 23.4047378042
49091 20 48.7214967512 61.7914517511 51.0913299241
49092 20 50.9687926652 63.5992037108 51.2753228924
49093 21 49.2936802728 60.5207123134 50.458813172
49094 21 50.5947266356 64.8986598955 51.9624669417
49095 22 47.4826544168 61.9120246723 50.4479625445
49096 22 48.6333821726 61.4989525077 52.460099169
49097 22 51.6420928104 62.814310474 52.2389708635
49098 22 51.8398361428 63.9785079744 50.1917567793
49099 23 49.6317334438 63.0083122108 50.5899561011
49100 24 52.6092952974 61.7530068553 53.3598593937
49101 20 9.6329529919 10.2918105778 83.9217742649
49102 20 10.0309932959 8.7354096628 86.290578499
49103 21 9.6524560595 8.9428530821 83.2871060952
49104 21 11.2417268926 7.7946134874 85.9644048943
49105 22 10.5078128972 11.2133843053 83.2182607344
49106 22 8.2171238272 10.7448242765 83.9365535679
49107 22 10.2140415112 9.0909922096 87.6516774727
49108 22 8.8330372484 7.9763895602 86.1009731372
49109 23 10.2001695452 9.9852709965 85.3806224261
49110 24 15.1407689339 15.1914675555 86.4529637521
49111 20 3.8134827074 79.0779980188 94.0460645144
49112 20 95.0512441977 80.3853115544 93.1042113383
49113 21 3.9224314263 77.5155076568 93.7291513591
49114 21 94.0856318889 79.334203784 93.408590148
49115 22 3.3925176466 79.1658319777 95.4223169507
49116 22 5.1193819199 79.5303569382 93.7731151085
49117 22 95.018879395 81.225954567 94.2658832615
49118 22 94.5059066253 80.9840604054 91.9430071145
49119 23 96.4058889189 79.5596349245 92.8708293068
49120 24 96.5899754271 78.9559284593 3.6637197274
49121 20 47.0142066359 65.1109019113 52.3684300745
49122 20 45.2523827633 63.9553100811 54.1213676574
49123 21 47.2195266996 66.6834945816 52.6250099993
49124 21 45.3081325391 64.9725564105 55.3632968082
49125 22 47.1876295963 64.9510422352 50.9631802716
49126 22 47.9942240881 64.3964442134 53.1290029393
49127 22 43.9259870896 63.5313872889 54.0323176798
49128 22 46.240631726 63.0099959289 54.4331361186
49129 23 45.5664897218 64.7740647589 52.9080617136
49130 24 53.5560125479 63.2778941806 49.63500734
49131 20 79.5320406563 48.8821982863 19.5602482282
49132 20 81.2171618172 46.6123592583 20.2356997909
49133 21 79.851198769 49.8879392089 20.6875910109
49134 21 81.4161211682 45.595861248 19.0515782935
49135 22 78.3733620096 48.2363053295 20.0109234296
49136 22 79.4631952955 49.620228037 18.3680823001
49137 22 82.5096960498 46.6138558965 20.8731741574
49138 22 80.1712922807 46.0480330877 21.0126421369
49139 23 80.8803246648 48.0810291082 19.6443405914
49140 24 86.4780324433 49.7596024766 15.1012950993
49141 20 42.1601410016 39.903865258 7.8233676503
49142 20 43.5471505255 38.2141606424 9.5653984817
49143 21 40.7657418262 39.1815502092 8.1025093971
49144 21 42.3384280365 37.9076304151 10.5456404297
49145 22 42.0956920158 40.1807433394 6.3898687999
49146 22 42.1665017143 41.0808777236 8.6453494544
49147 22 44.1833153335 36.9390248298 9.5337165201
49148 22 44.2266243036 39.2598430991 10.2160993889
49149 23 43.0764577872 38.6886885164 8.1439756314
49150 24 45.8223213274 40.1699862518 10.2760397519
49151 20 43.4905588907 36.0553534666 48.1417364984
49152 20 44.2255018249 33.3426965882 48.3032798925
49153 21 42.1028010476 36.1116644818 47.6141715054
49154 21 43.1221987945 32.3850351702 47.7839464101
49155 22 44.0987552708 37.1865313849 47.6122071677
49156 22 43.370360129 36.1831289596 49.5360421339
49157 22 45.4366563512 32.6402119966 48.0440808507
49158 22 44.0218654793 33.3924598109 49.7187255437
49159 23 44.1129733344 34.7032343226 47.5235313498
49160 24 43.4680157766 34.7309221307 50.8640279857
49161 20 35.2030179674 52.0750889721 24.0499759817
49162 20 35.0555055572 51.757146878 26.8460704441
49163 21 34.4512378526 50.8914351742 23.3899585012
49164 21 34.3423574178 50.380613822 27.0654214917
49165 22 36.6062098927 51.7912889387 24.1307009088
49166 22 34.936616354 53.1679155345 23.1536767331
49167 22 36.4885367082 51.4280735366 26.938300778
49168 22 34.6244737332 52.5947030742 27.9586339238
49169 23 34.5220475511 52.3159541949 25.4090170778
49170 24 93.2983066149 47.9452091845 24.1205986004
49171 20 79.5654343979 88.9530979951 42.7536516186
49172 20 79.6904036941 86.2737413184 43.9317865629
49173 21 80.4799739255 90.0535948287 43.3236837227
49174 21 78.7009387127 85.622329508 42.994049142
49175 22 78.3351977336 89.1947115371 43.3489394936
49176 22 79.5831134375 89.1823642713 41.3278230394
49177 22 80.6775301781 85.2824055391 44.0821051699
49178 22 78.9162675449 86.607772274 45.070073513
49179 23 80.2428502983 87.51501569 43.0555048513
49180 24 77.8240022218 87.8332384038 46.3185504564
49181 20 93.3099055616 11.4053749343 79.2996875637
49182 20 95.5708582998 12.767381245 78.4881354576
49183 21 91.968637045 11.6684839436 78.7586528263
49184 21 95.4165174774 13.2772671983 77.0312516341
49185 22 93.0169386187 10.9493866671 80.6609736172
49186 22 93.6236383605 10.2591838633 78.4949638697
49187 22 96.4311446898 13.7216752269 79.1279483213
49188 22 96.1917761053 11.4665874399 78.3805645813
49189 23 94.1483971567 12.708264033 79.1327188558
49190 24 96.5486307946 11.2879636614 85.7451473866
49191 20 86.5668018011 82.1660304853 14.2512045575
49192 20 85.9495320514 84.8339752952 14.8211431217
49193 21 85.6207393298 82.1128998264 12.9497840351
49194 21 84.5261355094 85.0777402546 14.508906961
49195 22 86.4334139146 80.8420668488 14.8142211696
49196 22 87.8520399221 82.515589063 13.8179277761
49197 22 86.2682224647 85.6362669519 15.9857147816
49198 22 86.5336886792 85.2490117976 13.6057793002
49199 23 85.9654338331 83.3220900149 15.1371208781
49200 24 93.3093443222 82.6586115584 10.710448366
49201 20 64.2400455134 66.1071953048 79.6075273494
49202 20 62.493655723 65.950609525 81.8004765859
49203 21 65.4468036647 65.2487797126 80.0850484999
49204 21 61.2977481992 66.989931269 81.695244207
49205 22 64.9191451319 67.1395015569 78.8497606814
49206 22 63.4602034308 65.2469089148 78.7966300226
49207 22 62.0293236974 64.6987651455 81.2609384868
49208 22 62.6450032689 65.8785838079 83.2276147237
49209 23 63.6510248112 66.6297091435 80.973958097
49210 24 64.1890662721 65.0443015079 84.2182957236
49211 20 57.7516508799 60.2353221018 81.8095499555
49212 20 58.2663073676 63.025523551 81.7579159349
49213 21 56.2732528811 60.5961054666 81.53622639
49214 21 58.3130773138 63.1773387963 83.3287313473
49215 22 57.8687628251 60.0052139666 83.210777543
49216 22 57.9776432598 59.1264066779 80.8831308615
49217 22 59.3651204832 63.8174322797 81.3021895793
49218 22 56.9751762334 63.4792855688 81.2982609038
49219 23 58.5617998876 61.483892585 81.3694447619
49220 24 59.9168187683 59.884921665 83.5885851683
49221 20 91.6404991026 71.7851603109 75.6998983461
49222 20 91.7049480885 74.4848151443 76.7459549624
49223 21 90.2833288044 71.3849031115 76.2384075064
49224 21 90.2156994622 74.4196178394 76.7728009115
49225 22 92.5474618989 70.709264469 75.7907255816
49226 22 91.3410779072 72.2230205471 74.3855693185
49227 22 92.171992771 75.0464286581 77.9371854916
49228 22 92.010355837 75.1750460101 75.5400386701
49229 23 92.1543137314 72.9530058671 76.6100414988
49230 24 92.5495197766 75.627872629 73.8482761768
49231 20 7.0622803161 77.8970568777 5.6439629902
49232 20 8.7076470227 75.7440491753 6.2900056108
49233 21 6.1697133092 77.3498485074 4.4982957426
49234 21 9.7765180187 76.6843121733 6.7599032601
49235 22 8.1864520965 78.4461360459 4.9224430305
49236 22 6.2862078912 78.8321751817 6.3399278513
49237 22 8.7107806091 74.7022953941 7.2618383225
49238 22 9.1918188596 75.3185362049 5.0226055472
49239 23 7.3618792373 76.5606524356 6.4209708141
49240 24 12.0487890839 44.9182582677 93.2116886746
49241 20 77.338062481 90.1394644499 37.7303723191
49242 20 75.9482467603 90.535699434 40.128922239
49243 21 77.500541274 91.643679459 37.2593989611
49244 21 76.1767647173 92.0629252565 40.3484603664
49245 22 77.0254521607 89.4102274491 36.5559789705
49246 22 78.5087142339 89.7477193807 38.5083436039
49247 22 74.6255926823 90.3282279527 40.5998955971
49248 22 76.9590388372 89.8637088472 40.8190595648
49249 23 76.0455282484 90.2720104774 38.6222751928
49250 24 76.8024530573 88.7935189388 42.4880918642
49251 20 70.3791621889 67.5590279741 75.5755838292
49252 20 67.9214015171 66.2267392872 75.9886559938
49253 21 70.1729067262 67.1883293807 74.1737950022
49254 21 68.447282792 65.0786306484 76.8456684876
49255 22 71.228972111 66.5891128302 76.1523508054
49256 22 70.859583076 68.8760696585 75.4612780807
49257 22 66.6512233188 66.4730298238 76.5414767577
49258 22 67.746856078 65.7222786477 74.7046338914
49259 23 68.865219031 67.4586596696 76.1138123698
49260 24 67.2903814033 63.9033019009 73.8796120408
49261 20 16.887345804 85.9818033143 58.1415251512
49262 20 19.1410959705 87.4784415921 58.9120132446
49263 21 15.7456914178 86.9538698757 57.9406014624
49264 21 19.0166879137 89.0413061136 58.6603909341
49265 22 16.6766004265 85.3777226894 59.4688562238
49266 22 16.79520901 85.0960740735 56.9936971321
49267 22 18.9214643033 87.2749923262 60.2834951464
49268 22 20.4145480651 87.1142907911 58.4569416682
49269 23 18.0816631497 86.9259014479 57.8625891922
49270 24 15.2131688106 82.868421537 67.8000802767
49271 20 11.9273555957 15.8569103498 92.337090681
49272 20 9.3315113348 16.7360917981 92.1120337
49273 21 11.693309431 14.3654167661 92.7670000263
49274 21 8.300720429 16.2812073015 93.1937290153
49275 22 12.9941219441 16.3522976197 93.1017793011
49276 22 12.1519355232 15.8368928128 90.9390434498
49277 22 8.9143701848 18.0777344742 91.7254333249
49278 22 9.1516995997 15.6978925328 91.1101279129
49279 23 10.6912259181 16.6765068866 92.7401540772
49280 24 13.088971395 15.2504912276 89.3149102988
49281 20 16.2806460622 76.820973956 27.1367924296
49282 20 16.0673751076 79.5061301061 26.3309462569
49283 21 14.7906491168 76.5766477572 27.4212472422
49284 21 17.3917129036 79.7594361346 25.663445585
49285 22 16.8719117218 75.9849143981 28.1193354589
49286 22 16.4384478606 76.3807752226 25.7902856791
49287 22 15.2285093529 78.9353496829 25.2916245129
49288 22 15.6833938494 80.7647093578 26.8436384069
49289 23 16.3791435688 78.3649434193 27.3977687293
49290 24 15.0103743239 76.3605706058 24.5863337245
49291 20 31.0692095044 27.4485608908 55.8305285706
49292 20 30.9693088993 30.0968623233 54.7565970664
49293 21 32.5970901062 27.4486544307 55.8205198021
49294 21 31.3318695221 29.5521795301 53.3272139712
49295 22 30.6495895473 26.715862914 54.78821355
49296 22 30.6969207328 26.8476606223 57.0539368227
49297 22 29.8993996105 30.9523781788 54.585699683
49298 22 32.1789667873 30.7293790754 55.1735043666
49299 23 30.5857018008 28.9181661397 55.8382923816
49300 24 29.9173592699 25.8751263614 53.2723995943
49301 20 60.9803673444 28.209601455 73.247656528
49302 20 62.7565963605 28.3990197371 75.4665163147
49303 21 61.8210103571 28.2663801697 71.8834707378
49304 21 62.0064064237 28.2137172103 76.7658789594
49305 22 60.6018114001 29.5468477562 73.5906673133
49306 22 59.8066287751 27.4106772344 73.017361313
49307 22 63.9748599186 27.7114079883 75.7650021112
49308 22 62.9697737752 29.7874323594 75.2388402167
49309 23 61.9973330542 27.6112267636 74.3224298912
49310 24 62.0112704981 30.7873738087 73.9639850237
49311 20 72.8799512111 10.8084501112 87.4702100815
49312 20 70.1383905059 10.8167470997 87.8001252819
49313 21 73.351018109 9.3094826902 87.0421715341
49314 21 69.8162391167 9.4184473108 87.2260709625
49315 22 73.90636445 11.297008969 88.2804526292
49316 22 72.7178465777 11.5854485811 86.2499821857
49317 22 69.3056983842 11.0123483686 88.9541269339
49318 22 69.8866746556 11.7565049823 86.791952322
49319 23 71.6126727494 10.7230201275 88.3500463091
49320 24 68.8755084192 14.5502515934 92.0784528787
49321 20 4.9063073991 83.3262993101 91.2095608185
49322 20 3.7832057151 81.413689131 89.4989968069
49323 21 3.9739831317 84.0016573329 92.1834981778
49324 21 4.6147342006 81.5250951428 88.1414523491
49325 22 5.6990954028 84.4380209308 90.7653398697
49326 22 5.6071082726 82.3160684726 91.8992304449
49327 22 4.4243524577 80.3107602602 90.168929516
49328 22 96.0048834004 81.1249314833 89.0365355791
49329 23 3.8292628873 82.8800204836 90.14807012
49330 24 68.7388466365 10.3005097877 50.1607950749
49331 20 91.9804230715 42.2646250614 80.1894390198
49332 20 94.1266023618 41.3473728769 81.7345309618
49333 21 90.6742320145 41.7108688986 80.8153144396
49334 21 93.5039072983 40.8172823069 83.0661648694
49335 22 91.6594877008 42.2003631553 78.8306785434
49336 22 92.0521681689 43.6419064365 80.7287900392
49337 22 95.2034336026 40.4124416528 81.4543789842
49338 22 94.5885023502 42.6680626171 82.1178574407
49339 23 93.0638021048 41.2753471598 80.5693980626
49340 24 52.463653685 30.7790487583 58.537947215
49341 20 84.1756415327 47.9222919109 14.0283925339
49342 20 82.3429144217 47.4278400399 15.9863695608
49343 21 84.5111691266 46.3600821686 13.8530987756
49344 21 82.7917188253 46.4163931838 17.0300876798
49345 22 85.4171029841 48.5819352318 13.9104387297
49346 22 83.2764425475 48.3402281499 12.9865452128
49347 22 81.4948817576 48.3588425885 16.5989623159
49348 22 81.7426689324 46.514422991 15.0691173763
49349 23 83.6560274307 48.0477289065 15.5137124847
49350 24 85.2978396214 51.7525634232 17.2783425541
49351 20 68.7457685885 80.155390499 19.4723207294
49352 20 70.0220268798 77.6559110352 19.6036507383
49353 21 67.7829624764 79.6138880621 20.6189327299
49354 21 71.4840553974 77.7131574494 19.0443757218
49355 22 67.8339417178 80.6594769789 18.5092339976
49356 22 69.6441257147 81.1404591054 20.0442236313
49357 22 70.1927371834 77.7455222521 21.004691246
49358 22 69.6331815473 76.4028506372 19.0591550248
49359 23 69.4602262863 78.8723037955 18.8768457746
49360 24 61.991440041 72.8380453393 16.9100759979
49361 20 42.4007256048 80.6301989926 92.797681111
49362 20 44.884116207 82.0390033114 93.2109403555
49363 21 42.5284075578 79.7405410764 91.5129106894
49364 21 44.6362354923 83.0658842498 94.3742024568
49365 22 41.8677352981 81.8893394837 92.2843341817
49366 22 41.5450226695 79.9561505283 93.7112852397
49367 22 46.2155630349 81.6686788776 93.4115834246
49368 22 44.6511083352 82.7095907998 91.9393590587
49369 23 43.8235609075 80.8774249281 93.4686427589
49370 24 48.0425842125 81.6088133465 93.6073624193
49371 20 8.4799241548 14.3792606702 84.4050013488
49372 20 9.7270073537 14.1625287396 86.9193536554
49373 21 8.3427011327 15.8430664457 83.8401139388
49374 21 10.8219479177 15.2133558903 86.8028029495
49375 22 7.3302253378 13.5884744202 84.0905202307
49376 22 9.7003204224 13.8436512465 83.9013825683
49377 22 9.2345759444 14.4024585635 88.2218966565
49378 22 10.3676620765 12.9163902935 86.7095436769
49379 23 8.5964842146 14.7236745538 85.8846153661
49380 24 8.9448454818 14.2556009325 90.0840888336
49381 20 13.738980107 42.7127746857 56.7037234657
49382 20 12.5329983367 40.5311437762 55.4313938499
49383 21 13.146311349 42.2320731788 58.075673067
49384 21 12.7961915319 39.133096545 56.249867908
49385 22 12.8405294408 43.767436972 56.2285408126
49386 22 15.0139288398 43.3159199116 56.9909844752
49387 22 11.2652147596 41.1353179409 55.7300667262
49388 22 12.4921120498 40.0419301391 54.033907858
49389 23 13.7732157076 41.4048063708 55.7533581594
49390 24 11.1552118462 48.7108332035 52.9142353465
49391 20 27.5818552374 22.2775821013 55.5355037501
49392 20 27.1146234751 24.7359040124 54.2222972012
49393 21 28.5414809931 21.4636914978 54.6033787227
49394 21 26.4851935394 25.4441880773 55.3253196119
49395 22 26.7124954778 21.3074798776 56.1016071786
49396 22 28.4359679946 22.9588331373 56.4111306824
49397 22 28.4884438742 25.1258718236 54.3629811993
49398 22 26.452548117 25.0930393214 52.9736331781
49399 23 26.7799377402 23.1865092353 54.4932822694
49400 24 26.9185638607 25.9942026444 51.4118911353
49401 20 11.9672503598 77.3446102735 24.9940741153
49402 20 11.8225722082 80.0784071676 25.731262007
49403 21 10.8090019966 76.2862999313 25.3519577435
49404 21 10.5221525627 80.5282405099 26.5601189932
49405 22 13.0840137807 76.4420438521 25.1141793371
49406 22 11.641207711 77.6691937 23.6313849634
49407 22 12.8568053821 80.7450659804 26.4638664439
49408 22 11.6752562318 80.4913857923 24.3853164958
49409 23 11.9391135601 78.5423885951 25.9739044878
49410 24 14.1318476549 82.0086963863 26.5309345468
49411 20 23.8885261275 31.1014807672 20.9288303933
49412 20 26.7508468337 30.3946933406 21.1774594272
49413 21 23.8454042371 32.5634157449 20.7138757207
49414 21 27.5001013715 31.6747867675 21.0233992245
49415 22 22.7414464275 30.8233866673 21.7065210584
49416 22 23.7871288842 30.5665261228 19.6821307079
49417 22 27.4901861429 29.6787390045 22.1685145868
49418 22 26.9712268201 29.8218550398 19.8424580834
49419 23 25.2675847605 30.7012235678 21.7142848695
49420 24 26.5008147014 28.331296855 18.7979916454
49421 20 25.6267779472 28.6676663079 52.2366323662
49422 20 28.3829308756 28.4238078086 51.9452556015
49423 21 25.2110866656 27.7865205219 53.4190701455
49424 21 28.8003058753 29.1069296425 50.6284945367
49425 22 24.5712738018 28.6784233956 51.2264950686
49426 22 25.8153543702 29.9684320511 52.7921657869
49427 22 28.4631881032 29.3797855085 52.9466936891
49428 22 29.2633283425 27.3346293019 52.1140015673
49429 23 26.9111742092 27.897645914 51.7404032372
49430 24 33.2869468123 31.8592474353 56.297666793
49431 20 9.0563637414 9.6592283477 64.394199256
49432 20 9.7298977364 11.383046962 62.1644888418
49433 21 9.7664063564 8.2797394311 64.1852311365
49434 21 9.3798621052 12.8305206724 62.6496802635
49435 22 7.8282317247 9.3801427248 63.7747780888
49436 22 8.9456592788 9.8902157579 65.7878501123
49437 22 10.8970604513 11.6405061618 61.4103702296
49438 22 8.6288864333 10.8285705421 61.4491892849
49439 23 10.0529845246 10.5999216292 63.5783443148
49440 24 4.9452199943 7.1469339187 62.8962514198
49441 20 44.5744991633 32.4935414454 74.057524916
49442 20 42.7334470019 31.1297298147 72.3955081086
49443 21 45.2020583012 31.4144652471 74.8872237613
49444 21 42.8543005428 29.7141906237 72.966101452
49445 22 44.4170715245 33.6915068468 74.8298838073
49446 22 45.4901611696 32.5522844978 72.9545960452
49447 22 41.3570074858 31.2964179029 72.0202260604
49448 22 43.653598923 31.123462642 71.3104453572
49449 23 43.1475481054 31.9612994578 73.6654992272
49450 24 46.3653204025 32.4183353719 71.164616665
49451 20 74.464236368 53.3342294632 65.2983558556
49452 20 72.5325440509 51.4732533047 64.7844476869
49453 21 75.3291997527 53.2698740172 63.9600806156
49454 21 72.8303750682 50.0109441674 64.1733515701
49455 22 75.4928945643 53.5965153213 66.2782797679
49456 22 73.5641955237 54.4392162116 65.0501945211
49457 22 71.4821845996 51.3415491362 65.7153566957
49458 22 72.1136724129 52.2326101508 63.6745033242
49459 23 73.8417283844 51.9180354928 65.5038629991
49460 24 67.6049560613 54.869032017 60.1928549907
49461 20 50.6414030419 88.3093564559 5.1182875031
49462 20 51.2394035738 90.8451293979 3.8991558948
49463 21 49.1072552673 88.1087133868 5.0311738014
49464 21 49.8645542358 91.4798911074 3.6983201335
49465 22 50.9066821766 88.9788214655 6.3823388385
49466 22 51.1624202423 87.0110227499 4.8951293819
49467 22 51.6697806185 91.4090814089 5.1701179575
49468 22 52.0466528448 91.242206241 96.3413463932
49469 23 50.9626190323 89.2554189272 3.9001464823
49470 24 52.6831918123 86.4996401584 4.1137682115
49471 20 9.1755522723 43.9582583525 53.5862259332
49472 20 9.1680597269 46.4484773669 52.3043552483
49473 21 8.1010501747 44.2215731494 54.5972050898
49474 21 8.7953406718 45.7038062838 50.9971352525
49475 22 10.1732955341 43.2194802826 54.3330484338
49476 22 8.6306917533 43.2267763942 52.4528965973
49477 22 7.920106607 46.994937418 52.7119085593
49478 22 10.1086314065 47.4240049043 51.9389884287
49479 23 9.7066343651 45.3660337325 53.2752057911
49480 24 7.6381212475 48.0033909976 54.1849747842
49481 20 89.359902987 74.4488022858 71.1189691976
49482 20 90.1341326761 77.037425267 71.9900126752
49483 21 90.0809084773 74.3983842838 69.79594096
49484 21 91.0290288263 77.4995123352 70.8602378553
49485 22 88.1357464157 73.7159172291 70.8741752992
49486 22 90.2582601132 73.8441604216 72.0633479508
49487 22 89.4406279141 78.2301524344 72.3944791698
49488 22 91.0617677886 76.5492405687 73.0452362009
49489 23 89.1685203672 76.0085799909 71.3170866896
49490 24 37.0035673555 33.0505715044 61.9051962602
49491 20 53.7520721623 81.5998335168 4.9600554212
49492 20 52.3127738386 83.7294562462 6.0374853174
49493 21 52.478432988 81.2573839709 4.2256363103
49494 21 50.9043436793 83.1770096419 5.7439571351
49495 22 54.3388479071 80.3794185412 5.3650831551
49496 22 54.6025368637 82.3912745461 4.1203010376
49497 22 52.0687282594 84.2942501162 7.3000400145
49498 22 52.8136799622 84.5845979421 5.0212024489
49499 23 53.1333057744 82.4417860879 6.1920412815
49500 24 58.1187949574 82.1769746527 9.4241813062
49501 20 35.1622345744 90.3377690217 20.0749982559
49502 20 34.7352249658 92.992337627 20.8658780458
49503 21 36.2990248862 90.2957696101 18.9957349778
49504 21 36.0011003291 93.5596570742 20.1715314248
49505 22 34.2928748148 89.2691692914 19.6421891739
49506 22 35.7751079491 90.0729575865 21.3276844943
49507 22 33.7306065218 93.9446672711 20.7133144813
49508 22 35.0611179507 92.6310865627 22.1783362755
49509 23 34.4878119505 91.7545242314 19.924492569
49510 24 29.4032640215 87.9806572741 23.2174709397
49511 20 40.7115822285 46.527425036 31.8600892943
49512 20 41.8972003642 48.7844490988 32.9011882963
49513 21 39.2491795514 46.9123416931 32.1634391652
49514 21 40.5796909803 49.6570827546 32.9268182268
49515 22 40.7950198125 45.1271328474 32.0605452836
49516 22 41.003146073 46.9710847455 30.5162016608
49517 22 42.768992161 49.2338147417 33.9539797848
49518 22 42.4604040561 49.1199766927 31.6087476035
49519 23 41.4519504766 47.3038996825 33.010068731
49520 24 45.8728328693 45.4772526645 26.5216740974
49521 20 3.2891012512 13.1226457562 73.1867620581
49522 20 94.4744772215 12.1558735527 74.4101703102
49523 21 3.9560393742 11.8681074278 72.7005416976
49524 21 93.4050356321 13.3377875086 74.8374605385
49525 22 4.3785459724 13.8368228344 73.7183492663
49526 22 96.1225565849 13.7012835303 72.1319126919
49527 22 93.983018627 11.7869522172 73.1036986336
49528 22 94.3013348807 11.1112574508 75.4471535569
49529 23 95.9358509598 12.7338004237 74.4093284512
49530 24 90.1329166575 5.9220477362 76.9665220285
49531 20 93.6303732328 14.5067555435 67.43228142
49532 20 93.0650181234 14.6082463267 70.2022782524
49533 21 92.5915191882 15.4562789908 66.7313870065
49534 21 92.0775174797 15.8713154932 70.2604600655
49535 22 93.7864913131 13.5115846286 66.4662949516
49536 22 94.8751085804 15.177997811 67.5776424127
49537 22 92.4830129131 13.7553495881 71.2084868745
49538 22 94.337534819 15.1750980744 70.5060958228
49539 23 92.8585755809 14.0623475149 68.7032079375
49540 24 6.7768901045 14.3512922424 68.312585347
49541 20 10.4037778289 71.2727487806 87.754851974
49542 20 11.3767049573 70.6043127098 85.1376057858
49543 21 8.9658826036 70.6977590623 87.7862813778
49544 21 12.9317308359 70.4727020812 85.3635981657
49545 22 10.2719052887 72.4187995418 88.5864216171
49546 22 11.2499303412 70.2228570287 88.32320036
49547 22 10.8803355185 69.2568705603 85.1396636634
49548 22 11.1275521 71.3049265036 83.913823374
49549 23 10.6941817787 71.5036987748 86.2574653771
49550 24 10.564507426 68.5602789819 88.8415984434
49551 20 9.764142691 45.0428534044 57.4123816903
49552 20 10.0438176151 47.326910496 55.8555972617
49553 21 10.5577444917 45.3354461877 58.723062662
49554 21 10.5246407238 48.2548262282 57.03027123
49555 22 9.9033113428 43.6077643758 57.2460677616
49556 22 8.4526385682 45.4355338725 57.7617531882
49557 22 10.737387855 47.7836657904 54.6856002881
49558 22 8.6258089709 47.4747970658 55.7242672528
49559 23 10.5161847176 45.9001465178 56.3540713481
49560 24 14.6506198979 49.0828413554 53.4635015944
49561 20 16.9717187869 85.0421015557 69.0414481882
49562 20 19.6991549684 84.4469072206 68.5589694234
49563 21 16.7079362905 86.0587866457 67.9178470012
49564 21 19.7980266346 82.9621485091 69.107674432
49565 22 16.1991728159 85.4777168344 70.1020970277
49566 22 16.5819380555 83.817383745 68.4574786402
49567 22 19.4302277778 84.352712549 67.181126809
49568 22 20.9930922994 85.0090819737 68.8925326796
49569 23 18.5361734866 85.1763313012 69.3617287797
49570 24 18.4170972037 86.6338699039 61.9390577012
49571 20 64.4943804807 8.8039276339 92.948935117
49572 20 66.8133279522 8.3620732444 91.4258250497
49573 21 64.711393031 7.6928140225 94.0223053818
49574 21 67.0496097203 6.927638995 90.8221185844
49575 22 63.0880081991 8.9716820769 92.6821593439
49576 22 65.1257747542 9.8863806223 93.5814518691
49577 22 67.1291186288 9.2025104693 90.3350563648
49578 22 67.5798873701 8.4222474571 92.6002183982
49579 23 65.2991977146 8.3176792115 91.671460807
49580 24 63.0675229627 13.6728474031 3.5825458088
49581 20 74.6070717837 47.6874132412 22.7450944833
49582 20 73.0630087805 49.386471846 24.4296544048
49583 21 73.4110707199 47.2763989541 21.8179270702
49584 21 71.7022839663 49.1454195434 23.6632820667
49585 22 74.7503748988 46.6285416597 23.7004174039
49586 22 75.650415743 47.6885357199 21.7018440638
49587 22 72.9549702048 48.3658580805 25.427070277
49588 22 72.9560926835 50.6999590145 24.9313088475
49589 23 74.2181329112 49.1091260651 23.3169973852
49590 24 72.1252713596 46.8430286328 26.0389147129
49591 20 82.9478369056 66.7347544426 59.96751739
49592 20 82.1899766977 66.6555261538 62.7292827119
49593 21 82.4094212852 65.4740237734 59.3668042012
49594 21 82.8787109252 67.6941931186 63.5553335013
49595 22 84.3238087222 66.5031496692 60.2623551307
49596 22 82.7445747195 67.7108432194 58.9435361883
49597 22 80.8624585453 66.5526322722 63.2754621434
49598 22 83.0232300589 65.5485750676 62.9658450997
49599 23 82.0293687025 67.1342633229 61.1613670362
49600 24 80.6832361116 70.4766307567 53.0355565868
49601 20 92.4149158715 82.4363607742 13.7376705485
49602 20 91.8145768423 84.1459893868 15.8205233316
49603 21 92.9867252335 81.2877844359 14.5470712371
49604 21 92.4167866693 83.4220841599 17.0140923582
49605 22 93.1500458855 82.5097895897 12.5681132123
49606 22 91.0438081293 82.1588279136 13.5345954422
49607 22 91.9831357283 85.5387048442 16.3179684792
49608 22 90.4630189376 83.7344138605 15.8005993346
49609 23 92.7206042397 83.6789447043 14.6250835073
49610 24 68.2147426196 17.2034171003 19.5581903506
49611 20 56.7362753483 20.8401545754 12.642224869
49612 20 55.6446648044 18.2836157773 12.6881529562
49613 21 55.8441853948 21.5727590123 11.5644114593
49614 21 54.7652027365 18.206538906 11.3599239006
49615 22 58.0449919823 21.4271173999 12.5095478857
49616 22 56.1091839099 21.1895260733 13.8816284428
49617 22 55.9661614145 16.9138175936 12.8267790767
49618 22 54.7827882362 18.8267083923 13.6813595333
49619 23 56.7783682998 19.273641998 12.3049667871
49620 24 35.9113955723 25.1214754487 60.0979119999
49621 20 31.9206096046 29.4513435261 69.7762040427
49622 20 32.4593058447 29.4452634331 67.0225766914
49623 21 30.610676952 30.0576691084 70.2107903826
49624 21 32.7156051498 28.2215745613 66.1345089534
49625 22 32.7985750343 30.5509985007 69.8783496052
49626 22 32.3023459054 28.4571080102 70.7331171416
49627 22 31.5937812207 30.2167804653 66.208686088
49628 22 33.7681160186 30.0383998906 67.3015126504
49629 23 31.7031293549 28.9285490677 68.2862070973
49630 24 43.1804741475 35.4862567615 74.6918189261
49631 20 59.3540827759 77.3948411957 68.0534798451
49632 20 61.912305292 77.8056684029 69.0780222862
49633 21 58.3621857573 78.0531749581 69.016473037
49634 21 61.8095049503 78.4776589896 70.4729827009
49635 22 59.3349070979 76.0087670707 68.3667449446
49636 22 58.8150123762 77.7401904783 66.7626293306
49637 22 62.0431676014 76.4351219 69.3530295697
49638 22 63.1026004223 78.4295794849 68.6267858454
49639 23 60.6512940031 78.2072351608 68.2454237043
49640 24 58.5653544035 74.1547128642 67.7738891069
49641 20 57.042431416 69.9785308299 12.5366463925
49642 20 57.8763395564 68.9380866072 14.9567759656
49643 21 57.8643664501 71.3213895246 12.3479015977
49644 21 58.8000459934 70.0006997844 15.5375651573
49645 22 55.7899322573 70.176554782 11.899246858
49646 22 57.8906511599 69.05725643 11.8854590779
49647 22 57.2036941904 68.4455990739 16.0989915912
49648 22 58.6573041177 67.9342164824 14.3173372614
49649 23 56.8689149157 69.6564729805 14.0228736803
49650 24 58.3717268263 67.4146959202 12.5146177479
49651 20 65.2105218966 44.8539028218 49.7637182319
49652 20 66.7475694079 43.1863671607 47.8946976426
49653 21 63.7833837589 44.4343764046 49.4143467339
49654 21 65.6448276169 42.3126110262 47.3389771421
49655 22 65.0771340101 46.2364224309 49.9950423857
49656 22 65.5802850911 44.0184045032 50.9002279241
49657 22 67.5656693065 43.3122718558 46.7202107542
49658 22 67.3117084987 42.3653675255 48.9299036314
49659 23 66.0547194252 44.5392346239 48.3856885376
49660 24 66.5608637827 47.2424439732 50.9388598996
49661 20 55.7724402974 21.3996166716 66.78049545
49662 20 53.9589824042 19.3146124709 66.7533688812
49663 21 55.6275470041 22.1966700944 65.5148071665
49664 21 52.8375326347 20.4139868258 66.4082066784
49665 22 57.1410224625 21.4077546422 67.1351051819
49666 22 54.8943813278 22.0177282803 67.7913810667
49667 22 53.637672874 18.343855468 65.773351429
49668 22 53.6882779557 19.0313736768 68.1080136024
49669 23 55.3102596893 19.9559219729 66.4413198003
49670 24 53.2546270148 33.1773180585 53.6980061045
49671 20 50.4563811348 79.9092870422 65.8788644275