ITEM: TIMESTEP
10500000
ITEM: NUMBER OF ATOMS
4000
ITEM: BOX BOUNDS pp pp pp
3.23005382 96.76994618
3.23005382 96.76994618
3.23005382 96.76994618
ITEM: ATOMS id type x y z
49081 20 26.2966171164 28.4705777547 15.2489010494
49082 20 26.1032701589 30.1626208676 17.5472697446
49083 21 26.7576752458 27.180756179 16.0369746426
49084 21 26.0967223664 31.6936818258 17.4125722996
49085 22 27.1478301369 28.5055616745 14.0790911556
49086 22 24.8796748269 28.4523374757 14.9533149896
49087 22 24.7394585283 29.8317702684 17.6453930917
49088 22 26.9670175249 29.832050888 18.6133438978
49089 23 26.7176401719 29.6806098023 16.1674627924
49090 24 22.0417680326 26.3009199514 23.2259830699
49091 20 44.156750004 57.973153345 48.3864368568
49092 20 44.5484015333 56.0540889133 46.4682142841
49093 21 42.707255832 58.3629340764 48.0199475585
49094 21 46.1035957837 56.2578187989 46.2428766835
49095 22 44.9591352007 58.9125744839 47.6782463317
49096 22 44.1367324671 58.0073889456 49.8050628643
49097 22 44.538299225 54.6205900629 46.2711257309
49098 22 43.7717398071 56.6569535196 45.4575157472
49099 23 44.2801291221 56.4958778249 47.8970361399
49100 24 45.5493719215 52.9523996225 46.5174162675
49101 20 12.6747767516 44.6013451124 70.6889663124
49102 20 11.6193380841 43.2607313751 72.8459026903
49103 21 14.2437213661 44.5558847247 70.6442542438
49104 21 12.6303453027 42.5466478368 73.7467853936
49105 22 12.3184552396 45.8929439461 70.1874054095
49106 22 12.2227826377 43.5826021447 69.7806004177
49107 22 10.6400034731 43.7671563524 73.8004772918
49108 22 11.0977877063 42.2400240697 72.0138653478
49109 23 12.3959062705 44.4724471408 72.1625937766
49110 24 7.4544837308 49.6063841329 75.0646689371
49111 20 81.6053523705 92.0223289432 87.8885204802
49112 20 80.1480008475 93.5001657026 89.8590318526
49113 21 83.1523151103 91.6133725338 87.8551267386
49114 21 80.4107544051 94.9366578296 89.1840479894
49115 22 81.4607396969 93.0374238551 86.8492922761
49116 22 80.9121282282 90.7897537816 87.5676786494
49117 22 78.9205703799 93.0236734909 89.2685145122
49118 22 80.1083399331 93.7271870214 91.2524020892
49119 23 81.3795470703 92.615184781 89.4157463027
49120 24 82.3744373654 92.8476314135 91.4258250497
49121 20 46.6403276861 59.6553747692 52.6457758554
49122 20 46.772499554 61.2486397557 50.345816982
49123 21 48.2538908293 59.238373929 52.7562464683
49124 21 45.5801465461 62.2418463328 50.3827652395
49125 22 45.9384043338 58.3570410632 52.8532473366
49126 22 46.4755103957 60.6973156302 53.5821101779
49127 22 47.8840340949 61.9107151139 50.9526102638
49128 22 46.9525638468 60.9647461824 48.9104473338
49129 23 46.3020874353 60.050954974 51.1988072605
49130 24 44.7851510009 57.7806482465 44.2267178435
49131 20 89.4454919885 29.1320918735 34.4271045603
49132 20 92.1284967211 29.4899755017 33.5985281938
49133 21 88.5979270238 30.4249067258 34.1966222655
49134 21 92.5774882044 28.0042813913 33.7521206971
49135 22 88.9544075536 28.6232348591 35.6244151825
49136 22 89.2604700814 28.2564649411 33.3409193302
49137 22 91.6779150596 29.6219602898 32.2859764242
49138 22 93.3335711543 30.1653335245 33.9127286922
49139 23 90.8864740303 29.6534832335 34.6093202706
49140 24 86.5909350934 28.6552255023 28.9700807799
49141 20 45.5569486528 42.7954639505 17.7582957418
49142 20 45.3576151422 42.0512605669 15.1294506069
49143 21 44.9819589344 41.6584865589 18.6420606448
49144 21 44.2877058533 40.9627368395 15.2296318316
49145 22 44.5303483341 43.7731429055 17.5131276839
49146 22 46.6371473297 43.254744822 18.5551620848
49147 22 44.6088283038 43.1595212116 14.7216166762
49148 22 46.2174338327 41.6014272245 14.0794653152
49149 23 46.1004154274 42.0456481734 16.5071061416
49150 24 44.0888400422 44.776358251 14.2115436432
49151 20 76.2923800243 8.9352108728 20.1748988609
49152 20 74.0492934055 9.8792528825 21.6984766277
49153 21 76.1184893644 9.1939141531 18.6683453545
49154 21 74.3688256778 10.176017545 23.2130745647
49155 22 76.0311231049 7.5419435301 20.3256851674
49156 22 77.647398905 9.2724783087 20.4194121395
49157 22 73.0940640247 10.8897924016 21.3188917445
49158 22 73.637811419 8.5372641088 21.7403824994
49159 23 75.407960342 9.9441040899 20.9651238716
49160 24 74.2578873655 6.8561838713 22.5900988816
49161 20 28.4337230371 42.6935990077 33.6112496192
49162 20 26.3348749324 43.0633622022 35.3473500214
49163 21 29.3986805667 41.6115295329 34.2058827149
49164 21 24.910917151 42.3382409567 35.326771245
49165 22 28.9047899351 43.9050341537 34.1065433492
49166 22 28.4334424175 42.4387028011 32.2124540688
49167 22 26.9600955729 42.6633856225 36.6423162912
49168 22 26.1739863175 44.5020992866 35.245952778
49169 23 27.0175290668 42.3419825524 34.2323545044
49170 24 87.7585000298 33.733038559 21.6049367353
49171 20 19.3168574283 86.7740862026 52.0810755252
49172 20 19.1018092157 87.7792658859 49.4613037599
49173 21 20.7548461935 86.4669011961 52.2715227461
49174 21 20.5390496619 87.6025690292 48.9843438487
49175 22 18.6581495063 85.5892163861 51.6873661183
49176 22 18.868707804 87.3155886395 53.3341359233
49177 22 18.381177885 86.6310637072 49.0066063431
49178 22 18.6780735034 88.9948167871 48.833744622
49179 23 19.3747586217 87.8955359721 51.0360478478
49180 24 17.918903737 85.0504266061 50.033861441
49181 20 10.6697398049 34.3817377125 63.9369762622
49182 20 9.1125157388 36.3428950957 65.3444710225
49183 21 10.214266007 33.2004224119 64.7759355567
49184 21 8.1351454655 35.5826963905 66.2142984815
49185 22 11.8887516821 34.8260522012 64.6117730456
49186 22 10.7693223743 33.8376161587 62.6117966071
49187 22 10.2132464222 36.6708459584 66.2718255154
49188 22 8.3823152771 37.4218777541 64.9015596322
49189 23 9.420841932 35.4079638716 64.1107733822
49190 24 9.80149317 35.9970781137 71.0057859278
49191 20 91.7240302265 87.6398914463 11.062448335
49192 20 93.0450005864 90.1317941787 10.729586628
49193 21 90.9693503749 87.4664684858 12.3833625709
49194 21 94.5040358274 90.1662168591 10.1773271035
49195 22 92.3295139497 86.3447380967 10.914702075
49196 22 90.8026622868 87.8896429589 10.0504589475
49197 22 92.1968743824 90.3778976355 9.6274528463
49198 22 92.9238664258 91.1052638385 11.7007364984
49199 23 92.8842055114 88.6915604561 11.2757192895
49200 24 90.6949043308 96.02256244 9.1777504597
49201 20 53.9210052079 86.722452182 82.0998977814
49202 20 53.1895232497 86.2959102728 84.7884213676
49203 21 52.8448287463 85.6357057126 81.5545602089
49204 21 53.3116863491 87.698353879 85.3713619768
49205 22 55.1709787895 86.3673747506 81.4096669156
49206 22 53.3592046144 88.0182603109 81.8246098782
49207 22 51.7942822152 86.1264159879 84.5181846185
49208 22 53.7574974761 85.3499413414 85.7499179211
49209 23 54.1713179599 86.3796284765 83.5695965701
49210 24 53.8057640605 83.9598450011 87.0931507754
49211 20 46.3485767618 86.7478950327 84.0622711832
49212 20 48.6012044496 88.3055213203 83.3975767081
49213 21 45.8810643798 87.6319405554 85.1195525865
49214 21 48.2987899776 89.7992598614 83.9001665497
49215 22 47.1115816638 85.7762961708 84.7588627616
49216 22 45.1382640946 86.270560962 83.4111399925
49217 22 49.3839462689 87.6407333053 84.4097718833
49218 22 49.3008828445 88.5415224687 82.1251535523
49219 23 47.1534875356 87.7280995648 83.1020841881
49220 24 46.8305878271 84.0717187123 84.3034170257
49221 20 80.896600606 87.4231595157 65.9092648926
49222 20 78.3937537062 86.6095495319 65.0671252416
49223 21 81.6524964762 86.0761850657 66.0121587742
49224 21 77.0517368705 87.3397219317 65.6185429071
49225 22 81.3961036312 88.2784882914 66.9231437859
49226 22 81.106036425 87.8620486906 64.5396537886
49227 22 78.5307896485 87.322978291 63.8164968808
49228 22 78.1111696914 85.2105669018 65.0196069763
49229 23 79.4170801286 87.0489064063 66.1909135085
49230 24 80.1291993291 88.0912214269 63.0397416146
49231 20 87.8555944381 92.8734484238 91.6998969343
49232 20 86.2616746722 94.5542667496 90.2194410579
49233 21 87.9512857479 91.5479881491 90.9123845805
49234 21 85.615314016 93.4587275303 89.2540158288
49235 22 86.7377927244 92.6627030463 92.6088240683
49236 22 89.1314785698 92.9117062398 92.2980845459
49237 22 85.3477899239 94.7130974869 91.2797157378
49238 22 86.4308883375 95.7654212759 89.47028006
49239 23 87.6797394404 93.9604755129 90.6366289778
49240 24 77.708293375 73.2145434061 13.9839610851
49241 20 17.2567348389 84.7956239393 56.6562052004
49242 20 14.6546421133 84.1690002004 57.3808587465
49243 21 17.9576292524 83.416752386 56.2821391709
49244 21 14.3607397715 82.6385940215 57.1489733534
49245 22 17.6016164221 84.9828908038 58.0235713469
49246 22 17.765966013 85.6740570684 55.6412038284
49247 22 14.9725842074 84.3481290942 58.7608527785
49248 22 13.4737945121 84.7480121341 56.9643256059
49249 23 15.7436335401 84.6335193058 56.3531359492
49250 24 13.8869602167 85.4670532866 55.298286583
49251 20 62.877824061 87.1839780109 72.6429211239
49252 20 60.8049800463 86.3643814741 74.4152214644
49253 21 62.8583677634 88.3983128935 71.6588814563
49254 21 61.5017587045 86.2041476384 75.8528360701
49255 22 62.7264765151 86.0563546085 71.7386709844
49256 22 64.1219981692 87.3336418387 73.2568234374
49257 22 59.5505165498 86.9183247166 74.769269957
49258 22 60.8073185436 85.0255449947 73.9250724285
49259 23 61.6170933917 87.4328876645 73.6212548581
49260 24 59.5128199732 83.9210259457 73.9543504148
49261 20 34.6249414327 56.6370295225 53.7683481036
49262 20 32.1095601872 55.5448577393 53.7082954927
49263 21 35.3217200909 56.2025367225 52.4826422831
49264 21 32.2992590889 54.4127444221 52.6335221295
49265 22 35.056534496 55.6818001417 54.7267578407
49266 22 35.182532731 57.9498619118 53.9645947978
49267 22 32.2666136665 55.0282369138 55.0555505624
49268 22 30.7936409815 56.0216305707 53.4007363266
49269 23 33.1102499557 56.6672429077 53.4398360016
49270 24 34.3012934051 53.0094589569 59.9886574056
49271 20 96.6219660703 45.1018770764 77.365843829
49272 20 96.2478065008 42.6033330116 76.184902688
49273 21 3.4160317048 44.9275187171 78.9387171191
49274 21 96.1587565233 41.3678581133 77.0789569792
49275 22 95.8299638016 46.2830052973 77.2144027433
49276 22 4.3674802031 45.1682904 76.7509125767
49277 22 95.287432426 42.3594745122 75.1083520668
49278 22 4.0708867186 42.6406554287 75.7459199731
49279 23 95.7562543665 43.808313905 77.0519239503
49280 24 5.8815543168 46.0313829868 76.336998553
49281 20 91.2514666903 50.0575270338 26.3631239799
49282 20 91.1684968058 50.5218590595 28.9686776816
49283 21 89.923854998 50.0066413323 25.5663511767
49284 21 90.1394644499 49.4779538607 29.2322730982
49285 22 91.568005686 48.6892254883 26.7152081347
49286 22 92.1588036462 50.7005202539 25.4316537317
49287 22 92.3573888377 49.8169424306 29.3064502329
49288 22 90.8953603201 51.6363868769 29.8651640099
49289 23 91.0541910573 50.9765564762 27.5274150201
49290 24 94.0613115169 49.7765331971 30.163182107
49291 20 25.2971433665 22.1116423322 48.2190004494
49292 20 24.386906674 22.8897071569 45.6325288858
49293 21 24.0727997154 22.5122736912 49.0798480788
49294 21 25.7046966775 22.8619258088 44.7687815197
49295 22 26.1723025994 23.1972663229 48.2427595821
49296 22 25.7802769106 20.9313559704 48.8528267601
49297 22 23.3977223123 22.4952494308 44.6945108452
49298 22 24.2161963704 24.2092744184 46.0760015155
49299 23 24.7160735552 21.8356061099 46.8026193993
49300 24 27.6504199785 24.1927178574 48.5618241549
49301 20 60.6672893247 22.7184356139 61.102436904
49302 20 59.1715864459 22.9930687379 58.7625364966
49303 21 59.7268392469 21.9655330203 62.167856278
49304 21 60.285553024 23.6023875968 57.8376140409
49305 22 61.4808057686 23.6694556996 61.7904228123
49306 22 61.3353512359 21.6761205934 60.4417646442
49307 22 59.2308907376 21.6026917779 58.4934222263
49308 22 57.9629574967 23.6138930035 58.3075584601
49309 23 59.6024311901 23.4592715614 60.2158658042
49310 24 59.8340359636 20.0127006875 57.6653135592
49311 20 56.3153458327 18.7602015288 85.3098127276
49312 20 56.151651021 20.9680236082 83.6455509627
49313 21 57.3694468797 18.4869715033 86.4432356033
49314 21 54.7000989714 20.6328701739 83.4066500776
49315 22 56.8236416077 17.8672697164 84.3219379244
49316 22 55.0520895863 18.4383307592 85.9103388365
49317 22 56.2283537328 22.4131214053 83.6723969118
49318 22 56.8112008021 20.4101516902 82.4736831912
49319 23 56.5828699248 20.2888304498 85.019184282
49320 24 56.7504934119 15.8633646023 83.3832651045
49321 20 81.000897586 93.5810777095 82.4685384972
49322 20 83.1556825464 92.7596103748 80.7768695438
49323 21 79.7096729119 94.2881457559 81.9269425204
49324 21 84.4539227125 93.1497652658 81.5349168315
49325 22 81.3159399435 94.422749661 83.5920461443
49326 22 80.5030782789 92.2369094563 82.6733908614
49327 22 82.8827331405 91.4258250497 81.1555190281
49328 22 83.4960742147 92.9940213451 79.4169865887
49329 23 82.1057907946 93.7719926298 81.3350220815
49330 24 88.5459188437 77.251163921 39.103537939
49331 20 24.717944353 29.4803408928 79.7431601934
49332 20 24.2392071839 32.123684711 78.4714853567
49333 21 26.1809082695 29.7641409262 80.3486439166
49334 21 22.6441649394 32.252302063 78.4716724365
49335 22 24.7966114025 28.1256961716 79.3430900737
49336 22 23.7720689615 29.6958568048 80.798477259
49337 22 24.6251527798 32.8521733927 79.6076208893
49338 22 24.7033521298 32.7861342287 77.2734264154
49339 23 24.5436795336 30.5361256578 78.4872000586
49340 24 52.5648638485 62.7855937271 64.4471428351
49341 20 87.7882457156 25.6734543535 27.7278710094
49342 20 89.8410721933 25.3399846372 29.6827612198
49343 21 88.576880548 26.1006510419 26.5019371801
49344 21 91.0921682536 25.8286370349 28.9228431343
49345 22 87.2830367569 26.8539277951 28.4009840748
49346 22 86.7738055829 24.8056847721 27.1779499822
49347 22 89.3309991603 26.4735945927 30.417797694
49348 22 90.1696778352 24.2025395461 30.4909458898
49349 23 88.8565648262 24.8833228827 28.5833868649
49350 24 85.4764072759 30.6553890206 26.8406451304
49351 20 60.0004434321 81.6211606123 16.0227565789
49352 20 61.9466344325 79.9477319379 17.0291522808
49353 21 59.0304347483 81.2951740874 14.8329291481
49354 21 63.4764793721 80.1130169277 17.0833118785
49355 22 60.2972455105 83.0010611044 15.9028384369
49356 22 59.2110602805 81.3160334834 17.1763840714
49357 22 61.5092418958 80.294390779 18.3367464361
49358 22 61.8527203806 78.5482816084 16.6974598225
49359 23 61.3081311273 80.8491758806 15.9265975696
49360 24 57.4529780035 74.4351454615 24.5262811136
49361 20 30.9854913007 79.0435753384 5.5614046812
49362 20 32.0918811476 79.0678957104 96.4534071842
49363 21 31.4337344649 77.6654521043 6.1045440662
49364 21 32.8298173584 77.6879952183 96.2709108542
49365 22 29.6438486246 79.2093280277 5.971736127
49366 22 31.9560612239 80.0303276629 6.0409837093
49367 22 31.5543073862 79.3032420796 95.1445970103
49368 22 33.0741435572 79.9658786771 3.3103038451
49369 23 30.9289932057 78.8821254842 4.0087013982
49370 24 33.1697413272 81.1488776957 4.854252449
49371 20 8.7000048135 44.1173697094 70.2044296699
49372 20 7.2379950039 44.3148324221 72.6600389242
49373 21 7.8311969393 44.5267938182 69.029475082
49374 21 6.3096302802 45.4726692098 72.0898197404
49375 22 9.3819199828 42.988810908 69.549182724
49376 22 9.5107992465 45.2403161171 70.6354614939
49377 22 6.2734584038 43.5287231667 73.3231432211
49378 22 8.2548204038 45.0076824048 73.3353034071
49379 23 7.6954050775 43.5422864511 71.2783611741
49380 24 5.6621564993 42.4843502685 75.0593371632
49381 20 46.7050572916 63.2928605634 82.2938059782
49382 20 48.5455482137 64.7345909243 83.845165093
49383 21 46.2168725934 64.1184436533 81.0390618621
49384 21 48.7647121815 66.1528427723 83.2591376674
49385 22 45.7248527596 63.5604781954 83.3131101853
49386 22 46.8348906622 61.9452313341 81.9029963079
49387 22 47.5682434183 64.8145675323 84.912361725
49388 22 49.8303186352 64.2906505952 84.2858315259
49389 23 48.0815903476 63.9069499567 82.6095966548
49390 24 40.583432576 59.0783271732 83.6187985535
49391 20 30.1400777536 21.1603416269 49.9609938649
49392 20 29.9088471397 22.1444748344 47.353008126
49393 21 30.3685957106 22.1711337038 51.0903009853
49394 21 29.2377919519 20.8237850942 46.8527567816
49395 22 30.8724951108 20.0242060943 50.3762174471
49396 22 28.725006262 20.8782253116 49.9899912315
49397 22 28.8192944735 23.1013879333 47.5141773605
49398 22 30.793173282 22.2380147268 46.2265072023
49399 23 30.6964530333 21.8987455372 48.640865364
49400 24 31.1276719371 24.9357052225 47.9620463651
49401 20 94.7688472627 47.4660043159 28.7622351391
49402 20 95.2816329526 48.2936452836 26.130957967
49403 21 95.6483093307 46.2233268459 28.9842053037
49404 21 96.5383414065 47.629324968 25.538289209
49405 22 93.4761259503 47.0171063725 28.3575815648
49406 22 94.7076721731 48.1105877142 30.0333487364
49407 22 94.2024632145 47.5183866557 25.5640126794
49408 22 95.4489758201 49.5948787262 25.5735537485
49409 23 95.5851699033 48.2381761274 27.6767046883
49410 24 91.4523903791 53.2160885791 30.6054387181
49411 20 20.3385001326 27.7703381205 21.3057961595
49412 20 22.4713967582 29.5329103123 20.6419435435
49413 21 19.0088305627 28.5904958967 21.2755827743
49414 21 21.9112798828 31.0081279547 20.4857319232
49415 22 20.2294326181 26.8940564089 22.4439895698
49416 22 20.3935015893 27.1331443738 20.0327182245
49417 22 23.7454100922 29.7668535831 21.2594003729
49418 22 22.482902165 29.0615627947 19.2398740969
49419 23 21.4667783143 28.791045426 21.568736797
49420 24 19.9072812289 26.5240125947 18.1970913768
49421 20 30.2462455314 26.4255150881 45.3280565362
49422 20 27.5837260353 26.8058482904 46.4304241676
49423 21 30.2746816587 25.3844160861 44.129810515
49424 21 27.4397681409 28.1944479925 47.1283253045
49425 22 30.6036614601 25.7863570036 46.5159196292
49426 22 31.1315070727 27.4955179168 44.9137683529
49427 22 26.3497477753 26.651507468 45.7161535496
49428 22 27.7403118151 25.9156291348 47.5394331315
49429 23 28.7465204372 26.943539012 45.3458291157
49430 24 24.7154187759 25.9897127296 45.8157735349
49431 20 7.5618675272 17.5563431142 47.3177435866
49432 20 4.9855076259 18.0018736215 48.2785853609
49433 21 8.276371995 18.7531860369 47.9641042428
49434 21 4.4165512306 16.5618269786 48.2217131063
49435 22 8.1885567441 17.5672872816 46.0264253725
49436 22 7.7675243346 16.4048670392 48.1380884426
49437 22 5.3700033535 18.1210434443 49.6244373322
49438 22 3.8657976984 18.8390556581 47.810979439
49439 23 6.0689708451 17.9806400659 47.2184977608
49440 24 7.4665690849 20.1597453983 55.326161471
49441 20 58.7484119728 28.5443807298 69.1666045642
49442 20 60.7138721911 29.6350558747 67.4047806916
49443 21 59.5799816159 27.6177745561 70.0403606987
49444 21 62.1117323425 29.079522454 67.8092471862
49445 22 57.4687862454 27.923743544 69.0462187227
49446 22 58.7417706405 29.7636732267 69.9554264765
49447 22 60.685248984 29.666111119 65.9686627242
49448 22 60.6662603859 30.8782945841 68.0483351511
49449 23 59.635544312 28.5669238439 67.8228104706
49450 24 58.1247815105 30.1236147325 71.9576478725
49451 20 32.3454677957 46.5142359112 66.3638687694
49452 20 33.7466018434 48.3741831309 64.8332755107
49453 21 33.0541260203 45.1680097803 66.046207295
49454 21 33.0436495523 49.7503420273 64.7019455019
49455 22 30.9180490383 46.1890912453 66.4925796613
49456 22 32.9712496756 47.0153291146 67.5544445194
49457 22 34.7860171273 48.5961532954 65.7348129933
49458 22 34.239650616 48.190751402 63.5080023158
49459 23 32.638060579 47.3393513017 65.0584260317
49460 24 32.9540383354 52.2412158209 68.893093919
49461 20 50.6036129254 59.33312984 28.7308057353
49462 20 52.4249281695 57.2540186525 28.5047198154
49463 21 50.3151358973 59.6446176815 27.2605457072
49464 21 52.9948667337 56.8255124056 29.9357866287
49465 22 51.6868984188 60.204734557 29.0235855984
49466 22 49.3753405988 59.7023317951 29.4237492579
49467 22 52.3096870221 56.0638170621 27.7288999482
49468 22 53.4113998743 58.1724868556 27.9474091368
49469 23 50.9768370959 57.8682951256 28.7992769365
49470 24 54.4533407353 59.5291894544 27.3417383337
49471 20 44.2455193619 64.8046523037 87.5619727159
49472 20 44.3399946532 62.037461668 87.1354308068
49473 21 45.1689451793 65.0689024996 88.7547934233
49474 21 45.4896934702 61.4590109736 87.9534371655
49475 22 43.1604566105 65.7567013281 87.678336342
49476 22 45.0206844499 65.060764529 86.4003007927
49477 22 43.2998310501 61.0739072368 87.0277663907
49478 22 44.9442623578 62.2641088272 85.8333555051
49479 23 43.7632276769 63.3749885889 87.7505491389
49480 24 41.5675657835 61.3233781297 87.6466263185
49481 20 80.2467789738 90.5990259411 60.9422030684
49482 20 82.6384069417 90.0476082756 59.4876577422
49483 21 80.1183487016 92.0057723823 61.4481603461
49484 21 83.5637035569 91.216108611 59.260075184
49485 22 79.7376413397 89.7096486445 62.0115511178
49486 22 79.4755425613 90.4673217726 59.786704778
49487 22 83.5288131771 88.9124081419 59.6779178832
49488 22 81.8662351303 90.0579912037 58.300730048
49489 23 81.797763929 90.2760326928 60.8103118201
49490 24 60.5257634676 40.3510794834 64.0392153645
49491 20 56.2466875517 59.8118670091 29.6719105923
49492 20 54.8149659592 59.2453894209 32.009846662
49493 21 56.6511540462 58.6223201979 28.7105075786
49494 21 55.1089618409 60.3215658825 33.0423399938
49495 22 57.2212796902 60.8437055617 29.5555469662
49496 22 55.0407712594 60.2089438521 29.0921503395
49497 22 53.6259803874 59.7778184883 31.391922133
49498 22 54.6280732543 58.0503237562 32.7439477372
49499 23 56.1739135154 59.3343458586 31.1516181496
49500 24 58.0830627185 66.8756255205 24.8737818137
49501 20 46.3433385278 9.3468331692 22.3182719544
49502 20 46.8016840004 11.5607353416 20.5680470285
49503 21 46.4571765768 9.8412850402 23.7660824084
49504 21 46.0715116006 11.4718537358 19.2242529348
49505 22 47.6298862074 8.806490627 22.0333494423
49506 22 45.2393807182 8.4322001017 22.3849658977
49507 22 46.5840166709 12.9291117189 20.8948754124
49508 22 48.1252734773 11.0635521057 20.3304557019
49509 23 45.9353175174 10.6471031509 21.4998914362
49510 24 49.2796492889 9.9432996468 21.155945252
49511 20 28.2463626327 44.8058233171 26.93652352
49512 20 29.9279292777 45.1139437226 29.1650179156
49513 21 27.4482802711 43.4603455054 27.0748690208
49514 21 31.3829423034 45.4778139038 28.956143336
49515 22 28.5534540994 44.9426721796 25.5210778688
49516 22 27.4804579941 45.8855542946 27.4970145551
49517 22 29.4636907919 46.4052619366 29.4027027821
49518 22 29.93466415 44.1840636526 30.3224805437
49519 23 29.5400193441 44.469640944 27.7966228303
49520 24 29.2999024404 52.5205259395 28.1367338789
49521 20 6.148199134 32.3999080131 58.6560880991
49522 20 8.3847753763 32.6513432438 60.3239979198
49523 21 6.6146638692 31.5858303299 57.4333346262
49524 21 7.9558201379 33.5507293088 61.474351516
49525 22 5.1610352339 33.3842283004 58.2090609535
49526 22 5.5489732295 31.432799066 59.5637056746
49527 22 8.0415868652 31.3827552236 60.843424942
49528 22 9.7976767424 32.8843511156 60.2006188017
49529 23 7.4640809237 33.1201651843 59.1473596138
49530 24 13.8320522999 33.531460091 58.6227878974
49531 20 5.3561594494 27.8983006933 61.5436645762
49532 20 8.0690501776 27.4452869946 62.246897487
49533 21 4.4161957791 27.8642521725 62.837788987
49534 21 8.1134535645 27.1283738393 63.7356784138
49535 22 5.2785961707 26.5867778625 61.0136675461
49536 22 4.8323828221 28.9277072087 60.7124690927
49537 22 8.0852419329 26.1326416851 61.6810746781
49538 22 9.2234914671 28.316517552 62.0468156572
49539 23 6.7514566078 28.3194172887 62.0302590963
49540 24 4.1846751915 34.3190659846 59.6773566439
49541 20 92.0400079829 6.3726948756 77.4687377106
49542 20 90.3329984872 7.8365380671 79.0198162057
49543 21 91.1534368831 5.0989808693 77.3539642627
49544 21 91.2784061793 8.9425444004 79.4428971389
49545 22 92.8366872461 5.9616712346 78.5712924219
49546 22 92.723784596 6.4945680014 76.2075393419
49547 22 89.115670328 8.5629688712 78.9148644465
49548 22 90.3855679067 6.8296746658 80.0370625352
49549 23 91.0598969907 7.5756646613 77.6842536226
49550 24 87.3832179816 8.287671614 78.0137946634
49551 20 41.4525117159 63.1796772936 83.9710697881
49552 20 39.7741254273 61.2615482609 85.0117946305
49553 21 40.8892144841 64.2727844757 82.9103274088
49554 21 38.356996058 62.0242725432 85.0898069008
49555 22 42.8065016578 62.8898907071 83.6082285457
49556 22 41.3324064941 63.8634539068 85.1985002557
49557 22 39.3980015201 59.9098032764 84.6358578031
49558 22 40.5192642098 61.3010220955 86.2353899625
49559 23 40.4815676332 62.0021971286 83.8532095238
49560 24 43.6564986597 57.7417356513 78.8615467079
49561 20 34.8391477862 51.7341360644 57.1932177225
49562 20 37.1186214231 51.3636245508 55.4901369023
49563 21 33.8240528743 50.5304647296 57.1178245692
49564 21 38.3687820845 51.8352526881 56.2673598679
49565 22 34.1726760531 52.6488626718 56.3572517044
49566 22 34.8407379643 52.1652614283 58.5473012043
49567 22 37.6560081047 50.2791230388 54.7449981197
49568 22 36.6030295364 52.4180062175 54.6771816978
49569 23 36.128033963 51.0477403343 56.7025074471
49570 24 34.1306766414 54.4113413237 55.5490670345
49571 20 55.6843257188 22.8848430825 79.7735606584
49572 20 54.2421276584 20.438961977 79.3661944271
49573 21 55.6937732479 23.794237916 78.4986119255
49574 21 53.1426597636 20.2279359799 80.4070128094
49575 22 56.9003443195 22.1497130684 79.7614940123
49576 22 55.5643140369 23.6833931435 80.9246625738
49577 22 53.7623615505 20.0326246846 78.0602839899
49578 22 55.2792979849 19.6265680119 79.7932040358
49579 23 54.4203211533 21.9727355921 79.509684622
49580 24 64.7526441235 27.5132904963 83.1612014001
49581 20 89.2592540628 23.3308412892 39.4561833332
49582 20 87.9706485057 24.7466611 37.3508809758
49583 21 90.4990317962 24.1266786934 40.0056366609
49584 21 86.6039371384 24.1514667649 37.1380777207
49585 22 89.8135714649 22.4139632643 38.5039472289
49586 22 88.7794879549 22.672320447 40.6432981071
49587 22 87.8431536324 26.150975504 37.1626787124
49588 22 88.7779913166 24.0980554864 36.4398024242
49589 23 88.3173073467 24.4452755668 38.8439647377
49590 24 87.4727356586 21.3102860744 40.8221463813
49591 20 92.4853514104 66.0821266136 73.9679136992
49592 20 90.7139864688 65.5971222718 71.8571860281
49593 21 93.0170321586 67.1642896284 72.9822838534
49594 21 91.6843693121 65.8676396405 70.6779286051
49595 22 93.7035214286 65.4782330686 74.4474927273
49596 22 91.7197273914 66.7457921499 74.9511115078
49597 22 89.9584647582 64.5157075762 71.423628627
49598 22 90.0195463079 66.8354969067 72.0872006234
49599 23 91.6633228364 65.1073473954 72.9877091671
49600 24 90.3187804236 66.6305510026 76.4562619157
49601 20 93.3375933697 3.3471096413 11.0445541535
49602 20 94.9584526245 94.5747519861 11.5078853024
49603 21 92.536143572 96.611770222 12.3748597947
49604 21 94.894564878 93.9145474258 10.0495516105
49605 22 92.4252987995 96.5201011275 9.9869079446
49606 22 93.4944597692 4.7667552337 11.141498898
49607 22 96.2423811871 94.1838487759 12.0273310326
49608 22 93.8399025917 93.977780393 12.2470843017
49609 23 94.7099171305 96.1091803803 11.1586821762
49610 24 10.478460079 84.8094678434 21.9935949881
49611 20 11.1979034531 93.6061464007 20.734454497
49612 20 10.506278843 92.3556115797 18.1774479994
49613 21 9.9707723132 93.7432758829 21.7315897496
49614 21 11.6764348344 92.620423015 17.1929406324
49615 22 11.9189744213 94.836383065 20.9102159547
49616 22 11.8176987799 92.3723552204 21.1224579705
49617 22 10.8723939817 91.1138695086 18.7492573614
49618 22 9.3609951089 92.3166989845 17.4368926716
49619 23 10.5176252319 93.5548865397 19.239780557
49620 24 22.922633199 17.5065798914 48.7152295784
49621 20 58.4260735038 32.0559618289 57.7119899655
49622 20 56.4498561979 32.0568036879 59.7740768926
49623 21 58.0686575751 33.3116413439 56.7944571613
49624 21 55.0538668443 32.6514367837 59.5107620956
49625 22 59.0267866925 31.0314193879 56.9104466279
49626 22 59.3428579888 32.572021415 58.6368188813
49627 22 56.0645653812 30.8775462649 60.5287567441
49628 22 57.1735743451 33.0696536424 60.5425071083
49629 23 57.1001455296 31.7126704239 58.4046528684
49630 24 55.8360474242 28.445976763 68.5012553099
49631 20 46.1600003388 92.848099113 63.112422111
49632 20 46.45446392 94.6374237139 65.2560758242
49633 21 44.9137683529 92.9755939863 62.1569121105
49634 21 44.9550194454 94.8304900518 65.6131175934
49635 22 45.7415028604 91.8797741473 64.0619455583
49636 22 47.2355220212 92.4211830443 62.2111652481
49637 22 46.8248818937 93.5864094834 66.1405890464
49638 22 47.004478487 95.9213522765 65.5152748659
49639 23 46.443145593 94.2604579477 63.7331528367
49640 24 46.3809415646 90.3116713918 64.8421618005
49641 20 84.6971264326 33.7694255771 15.5964952894
49642 20 85.2892339513 33.6813109985 12.7945078138
49643 21 85.3180442381 34.9284783834 16.4927009981
49644 21 84.7857087107 35.1376335827 12.423285397
49645 22 84.8347236143 32.606818255 16.4530400838
49646 22 83.372414477 34.2152367041 15.350953072
49647 22 86.4421131246 33.4952601526 12.0558419918
49648 22 84.1898595964 32.8536700309 12.4388036651
49649 23 85.6062406465 33.7524948566 14.3155600035
49650 24 82.5428091717 32.3849416303 11.9451281752
49651 20 85.8475735688 9.4139948119 59.4568831176
49652 20 87.3692805377 9.8761660661 57.0938783568
49653 21 86.2320225264 10.5251645472 60.426330562
49654 21 87.9980556941 11.3120782457 57.2001396745
49655 22 86.5897190748 8.3083719922 59.7660324618
49656 22 84.4782430845 9.2082444647 59.691107008
49657 22 88.344059756 8.9191500733 57.5670966722
49658 22 87.1027853843 9.8098930523 55.6864771363
49659 23 86.0822651587 9.9883858749 58.0053310679
49660 24 87.3197979346 7.021524985 58.5837817623
49661 20 52.7803797605 65.6191976864 65.4411912712
49662 20 54.2587777592 64.7302880893 63.2413200827
49663 21 53.986108973 65.6222845028 66.376403115
49664 21 55.6979825431 65.2008872877 63.3906097509
49665 22 52.1810696701 64.3406944376 65.603015285
49666 22 52.093422791 66.7376541793 65.9195542807
49667 22 54.1893711591 63.4307383647 63.7276339831
49668 22 53.8884533254 64.6858566404 61.878443851
49669 23 53.4113998743 65.8299430638 64.0678385716
49670 24 53.6159716189 63.1224308795 60.3802153951