ITEM: TIMESTEP
15000000
ITEM: NUMBER OF ATOMS
4000
ITEM: BOX BOUNDS pp pp pp
3.23005382 96.76994618
3.23005382 96.76994618
3.23005382 96.76994618
ITEM: ATOMS id type x y z
49081 20 28.9299521661 19.8493800355 7.2789841847
49082 20 26.4731268933 19.9981084643 8.6625888566
49083 21 29.5445092589 21.206363254 7.9202282088
49084 21 25.8658659121 18.528877375 9.0195277318
49085 22 29.4794990337 19.8982078593 5.9746265097
49086 22 29.5843572531 18.8323207859 8.076514661
49087 22 27.319756459 20.2504790939 9.751917027
49088 22 25.2996689436 20.8356646605 8.6193921343
49089 23 27.3146117649 19.942826388 7.358726943
49090 24 23.9482981187 31.3418782906 16.1397749843
49091 20 46.2735577681 57.9682892706 60.8303293571
49092 20 48.8332769226 58.6580524368 59.781560084
49093 21 46.2398834069 56.5280555479 60.1321476005
49094 21 49.2003274602 60.0210222084 60.4907795478
49095 22 44.9263026985 58.4357081127 60.7023667843
49096 22 46.6681090341 57.7042261544 62.1687916769
49097 22 49.3331541073 57.6223787486 60.5719721744
49098 22 49.5772932264 58.8079968843 58.576205031
49099 23 47.2801405498 58.7706744672 59.875380596
49100 24 50.5594620962 56.1885992785 61.1248864781
49101 20 6.8647053555 9.3096978319 77.0477146551
49102 20 8.2022977542 7.6462498641 78.8725844152
49103 21 6.4638682087 8.1646853635 76.1066097981
49104 21 9.184494686 6.734731675 78.0044406742
49105 22 7.4012127621 10.3642291624 76.243084501
49106 22 5.6507259244 9.605929317 77.7921051185
49107 22 8.9652839482 7.8659002393 80.0009561367
49108 22 6.9634086499 6.9380219231 79.1184072523
49109 23 8.0957371089 8.8914903272 77.9583255072
49110 24 13.2657617915 13.1907427978 77.7388809198
49111 20 94.6385461927 77.2783840297 4.0977981456
49112 20 91.7639717605 77.2212311554 4.4374106266
49113 21 95.4767571681 76.0416931128 4.1844319878
49114 21 91.6633228364 75.9522689757 5.24093701
49115 22 94.809443576 77.7762033368 5.391274325
49116 22 95.2903321626 78.0983547261 96.6668652186
49117 22 91.6745476234 78.3907604296 5.2587844215
49118 22 90.699861945 77.1509826963 3.4798960663
49119 23 93.1203001998 76.9859783262 3.6886518503
49120 24 95.0663976603 77.9348469943 7.2796950879
49121 20 45.0293836599 57.7084354496 65.4621442071
49122 20 43.4613744442 56.7722882068 63.3041788903
49123 21 44.5485886131 57.1158602315 66.8895629645
49124 21 42.4184046444 55.6767489875 63.7176252146
49125 22 45.5352473977 59.0528843225 65.7453830011
49126 22 46.0445721116 56.8310312592 65.0518782392
49127 22 42.7277410685 57.5507271911 62.3293061322
49128 22 44.5717865064 56.0005840949 62.7961637349
49129 23 43.7233796827 57.6588593066 64.5791276232
49130 24 51.3484710882 58.2770644552 58.0073889456
49131 20 81.3312804858 40.1590420844 18.435056863
49132 20 79.7963843921 37.8653503838 19.2843055457
49133 21 82.3931453439 40.6196325143 19.3969275761
49134 21 79.0084043389 37.47762753 17.9985997253
49135 22 80.1542680203 40.896229976 18.7451416062
49136 22 81.8218036814 40.3640815284 17.1240952716
49137 22 80.2708187262 36.6266015893 19.8380617085
49138 22 78.8634175057 38.5224681276 20.1083919974
49139 23 81.1007981911 38.620310855 18.7536537364
49140 24 85.0367697818 37.4283320067 11.9043447821
49141 20 37.3902612705 41.8064666686 4.8201945742
49142 20 37.0947687505 39.8509216789 6.6809462369
49143 21 35.8902555566 42.1568671054 4.5675526789
49144 21 35.5885894038 40.0476360726 6.8742464245
49145 22 37.9402758376 42.0183345248 3.5226512803
49146 22 37.9196035214 42.7549611771 5.7873783532
49147 22 37.2201122063 38.4267768177 6.7562739122
49148 22 37.7371071914 40.5159903136 7.7909841396
49149 23 37.4383407752 40.3276009704 5.2633865842
49150 24 39.2316875915 40.8068993788 8.693531853
49151 20 41.6208835222 41.808711626 48.6970828393
49152 20 40.1298576379 39.7260459226 47.5490677404
49153 21 40.535633691 42.8325992878 48.710365504
49154 21 39.0264610677 40.3634267492 46.7231104908
49155 22 42.8153879476 42.5322426934 48.4276879493
49156 22 41.5474547067 41.1234383746 49.96520316
49157 22 40.4976564947 38.6254555491 46.7015027757
49158 22 39.6425147987 39.359837244 48.880701648
49159 23 41.3025672685 40.802409464 47.5692723571
49160 24 40.4158090889 39.7542014302 50.4461852865
49161 20 35.8654674851 46.702064015 28.9497826233
49162 20 35.0813225675 46.6445369812 31.579656697
49163 21 35.8350670201 45.2385388592 28.7606449609
49164 21 34.4139154355 45.2941950951 31.7633690456
49165 22 37.2359204481 46.9831513916 29.2265671648
49166 22 35.4756867537 47.1958611068 27.7107532091
49167 22 36.4791827189 46.4986147492 31.8705657622
49168 22 34.4843509744 47.4427128828 32.5605160083
49169 23 34.8050992654 46.8951303529 30.0374644917
49170 24 91.8899699955 30.1254855304 21.7719989831
49171 20 77.4909066651 86.8547175898 39.6774051786
49172 20 79.0359050672 85.7861178595 41.6491325697
49173 21 76.7583022282 87.6052816861 40.7498400445
49174 21 79.9489479565 84.6087312344 41.3665485548
49175 22 76.6839380137 85.7497308414 39.2952011784
49176 22 77.5420729862 87.8245391938 38.6310679427
49177 22 79.7053700768 86.5315372617 42.6651628805
49178 22 77.8241893016 85.2153374363 42.1275891191
49179 23 78.8917600931 86.5718529553 40.2997260825
49180 24 77.0325611925 83.5782957801 42.3917457751
49181 20 89.2546706081 10.2744215118 75.5568758507
49182 20 91.5053339582 11.2607809687 74.2347830121
49183 21 87.9925368405 11.3017046716 75.6715557587
49184 21 91.6136531535 12.7808509895 73.9462124441
49185 22 89.2732850467 9.4907723555 76.7413715076
49186 22 88.8198971884 9.6264051995 74.3432892872
49187 22 92.816763249 10.9117462144 74.7620673853
49188 22 91.0521331797 10.6394890037 73.04607806
49189 23 90.4533843287 11.2279204045 75.3861655471
49190 24 93.4144831612 9.2011260788 81.7597867327
49191 20 85.1664160726 85.6481465183 16.7938059117
49192 20 82.4132564208 85.8558986192 16.1980503372
49193 21 85.3665914423 84.514349483 17.8439782832
49194 21 81.5459545388 84.8594181459 17.0410318472
49195 22 86.1597161896 86.5762493303 17.2220315389
49196 22 85.4064394364 85.1027154059 15.5461708274
49197 22 81.6007689157 86.9227210916 16.0279948129
49198 22 82.6735779412 85.1500465914 14.9869893508
49199 23 83.6651008002 86.1660769023 17.0646974399
49200 24 92.3511216649 85.0355537632 16.2670827778
49201 20 68.335128461 68.2032372128 81.0126836125
49202 20 66.3348714028 69.424026348 82.6899474224
49203 21 68.7279960089 67.0024656146 81.8102047347
49204 21 66.0094461173 70.9029855861 82.2070009581
49205 22 69.5322520035 68.7843070241 80.5519996426
49206 22 67.4382679731 67.8241200291 79.9579277862
49207 22 65.306680906 68.6056458297 82.0566823511
49208 22 66.3205597993 69.4164496167 84.0438438244
49209 23 67.7636932586 69.1642660669 82.1702397804
49210 24 66.4514221087 68.5786128008 85.6574069676
49211 20 59.4711011812 65.9329304853 81.1018271299
49212 20 61.2536909099 68.1814424179 81.366732105
49213 21 57.9136619734 66.130486738 81.1563608871
49214 21 60.9596014883 68.435964465 82.80500149
49215 22 59.827581711 65.4912351136 82.433928737
49216 22 59.658087426 64.9294345201 80.1306959674
49217 22 62.4683064122 67.4356488561 81.4314617106
49218 22 61.4434833515 69.4254294464 80.7529233314
49219 23 60.0272893812 67.3562334875 80.7886555703
49220 24 60.9520247571 64.2691364199 83.7118707464
49221 20 3.7459553237 71.6815181102 75.2746659954
49222 20 95.4990196625 72.6388989085 77.2197345172
49223 21 96.4687477266 70.5793375585 74.6072588634
49224 21 94.1582188454 71.9778524892 76.774952329
49225 22 5.108821266 71.2086739543 75.1949700071
49226 22 3.5527047123 72.8736840383 74.5065163994
49227 22 95.3288705983 72.5280541361 78.650240091
49228 22 95.5007969204 73.9511700584 76.6008745893
49229 23 96.6762192078 71.8023716511 76.7234118483
49230 24 96.6137345597 74.8880656203 75.1903865524
49231 20 7.227443704 80.5498482251 9.1480421899
49232 20 9.9348249326 80.2330286096 9.7680058885
49233 21 6.796477358 79.1498366561 8.6419258943
49234 21 10.3016696824 81.6585765692 9.9707348972
49235 22 7.5940265422 81.2942386885 7.9628823997
49236 22 6.0615437777 81.1375593688 9.7852078747
49237 22 10.7205413204 79.4525317478 10.666175935
49238 22 10.3104343703 79.9375360897 8.4158493285
49239 23 8.4020054244 80.1263931324 10.1418287143
49240 24 15.6448554138 53.4724814241 90.0023349677
49241 20 74.5652594518 89.7877544546 36.7351078644
49242 20 73.8058090657 88.0410840446 38.8136578125
49243 21 74.4974430298 91.2588563418 37.141258077
49244 21 74.7280188645 88.7422590777 39.8028421743
49245 22 74.1419914388 89.8615574297 35.3715768535
49246 22 75.906808588 89.4455855284 36.8942192213
49247 22 72.5986767548 87.7893681943 39.4993987634
49248 22 74.4308426264 86.8345129731 38.4181711476
49249 23 73.5348239975 89.0482280656 37.6426319001
49250 24 74.917904846 85.1067376213 38.6866306387
49251 20 76.1408453987 67.1309894267 78.6689480695
49252 20 73.3558821834 66.8053770614 78.292262923
49253 21 76.6021841478 68.5353038307 78.1428797149
49254 21 73.178156388 65.37272007 78.72067563
49255 22 76.2368173282 66.2101827263 77.6351451791
49256 22 76.9921519591 66.9152864349 79.7971327112
49257 22 72.1190977267 67.4127315825 78.679798697
49258 22 73.3891823851 66.8441025768 76.8467909663
49259 23 74.6296148977 67.3198464694 79.0563903036
49260 24 71.5472883647 65.262342997 75.4693225114
49261 20 21.5952085865 93.327771681 52.7122827189
49262 20 23.6561730349 94.0310981317 54.49272103
49263 21 20.5209029227 94.3771021935 52.5411047158
49264 21 24.0837438828 95.4720801735 54.6606251368
49265 22 21.0835453753 92.5519518138 53.794071574
49266 22 21.63561782 92.7114373303 51.385138726
49267 22 22.8849366224 93.8036091134 55.6595376473
49268 22 24.795301844 93.193916095 54.458859589
49269 23 22.8283449875 94.1328695346 53.1123528385
49270 24 21.075968644 89.5687775666 62.4143338943
49271 20 11.2347301087 14.9211372666 84.3059426028
49272 20 8.4349034046 15.2155073079 84.5457788868
49273 21 11.1778859161 13.6367410046 85.2374128509
49274 21 7.980907537 14.8586526185 86.0656150579
49275 22 12.4207317579 15.6347531054 84.7192953871
49276 22 11.2256848011 14.36204933 82.9908652561
49277 22 7.6001534052 16.2548290519 84.1862115406
49278 22 8.2307058195 13.9774132926 83.8110230323
49279 23 9.8686828747 15.6991085514 84.7103155575
49280 24 11.5883763797 13.8878956156 81.316407643
49281 20 23.5606688048 70.7853124015 23.5827442194
49282 20 21.477441862 72.325633809 24.7012942522
49283 21 23.9227617281 70.6937368469 22.1122035716
49284 21 22.1719755628 73.0911642881 25.9184353316
49285 22 22.9168337256 69.4816469217 23.8741209841
49286 22 24.7965178626 70.8152451671 24.2355591281
49287 22 20.5339985077 73.2811438095 24.2613761384
49288 22 20.9623176748 71.1058736126 25.286292739
49289 23 22.6632470775 72.0761629161 23.7108938719
49290 24 20.9188216248 69.5955785106 23.5008032736
49291 20 26.2401190214 33.3311911814 51.9470328595
49292 20 24.0494147423 34.3844503694 53.515135615
49293 21 26.2183242265 33.6846784347 50.4488979434
49294 21 23.5776930652 35.6496709535 52.6820693336
49295 22 26.6108176148 31.9475490936 51.9629346412
49296 22 27.0899289435 34.2430180522 52.6586843605
49297 22 22.8496720829 33.8837313256 54.1019113597
49298 22 25.0075438598 34.9889051538 54.5160124632
49299 23 24.7169154142 33.4081745128 52.4340015391
49300 24 23.5295200206 31.8744008978 51.6036479146
49301 20 60.0853776543 34.3144825299 83.6934433876
49302 20 61.4510600828 35.3735411912 81.5228501854
49303 21 58.7506569303 34.1694956968 82.8212774312
49304 21 62.1746846901 36.5033160111 82.3236452039
49305 22 59.920560364 35.5609951355 84.3498128123
49306 22 59.991837762 33.1502850296 84.4993831002
49307 22 62.4453891386 34.9843216991 80.5627567302
49308 22 60.2893881596 35.9609717152 80.9721808391
49309 23 61.2599580827 34.2634097487 82.5921982349
49310 24 60.4764679443 36.5704776539 79.226445828
49311 20 71.6240846163 9.6495656768 84.6492340077
49312 20 71.4687148551 7.7742030829 86.6421949544
49313 21 70.8937251367 8.6779574609 83.6812832016
49314 21 71.2488025681 6.6133356027 85.6902394698
49315 22 72.48988986 10.4415679454 83.8257087954
49316 22 70.565867814 10.5544425335 85.0639898905
49317 22 72.2601558843 7.3016208387 87.7361439955
49318 22 70.1849733723 8.186844964 87.0400201166
49319 23 72.3129123836 8.7585607861 85.7816279447
49320 24 68.6022783936 12.9249959636 88.6559217571
49321 20 94.8530331658 80.5893220596 92.9585697259
49322 20 93.4271110467 78.0682348808 93.2722089849
49323 21 94.1980668395 81.9154371136 93.5624632709
49324 21 93.1274092316 77.1781092651 92.0695665889
49325 22 95.4887302743 80.924475494 91.7544306915
49326 22 95.7451231193 80.1996348681 94.0288531742
49327 22 94.5983240389 77.5542331722 93.9255851331
49328 22 92.3025744607 77.8362559477 94.1493325556
49329 23 93.6956640777 79.5589801453 92.7963715525
49330 24 68.8421146776 21.3112214733 45.2172117637
49331 20 8.4721135738 50.2780941 81.1770332033
49332 20 11.195368522 50.172019862 81.1944316233
49333 21 8.0620253317 49.0548729276 82.0587402287
49334 21 11.9014637535 48.7072786876 81.1808683389
49335 22 7.4672238641 50.3125167804 80.2286322347
49336 22 8.3939142237 51.4097397177 82.1050424754
49337 22 12.0865604925 51.0287517362 80.472584274
49338 22 11.115373206 50.400631359 82.5791026499
49339 23 9.8302192709 49.8909324855 80.529082369
49340 24 42.9602812409 30.4192943323 58.297269072
49341 20 82.2677083483 37.5250522554 11.4393673312
49342 20 81.1887256899 37.6143828526 13.9979920689
49343 21 81.2560744124 36.4744121844 10.9595638073
49344 21 81.0044521019 36.1518866355 14.6206871323
49345 22 83.5243232622 37.0527693389 10.9094170711
49346 22 81.777839932 38.7487411272 10.8359976095
49347 22 81.350269084 38.5462272603 15.0179510552
49348 22 79.9360394514 37.7343009946 13.3330169741
49349 23 82.3657381555 37.4673381418 12.9931865452
49350 24 86.4835512969 38.3532544623 14.3765480133
49351 20 68.5522345512 72.6246808449 24.7364652517
49352 20 69.101594339 69.8357889542 24.4019665966
49353 21 68.1742398462 72.8676974852 26.2353484869
49354 21 70.3068558521 70.3162098413 23.5826506795
49355 22 67.6820329326 73.4813191791 24.0481987237
49356 22 69.9616001094 72.9367299258 24.7154187759
49357 22 69.689960262 69.3929711037 25.6187335165
49358 22 68.6560638317 68.8007700452 23.5818088204
49359 23 68.1745204658 71.1152276019 24.4676316011
49360 24 60.3291426138 66.9071484643 20.3169859574
49361 20 41.9617428899 90.5961262044 7.7060405633
49362 20 44.7550311556 90.1659362395 7.803640087
49363 21 41.2670221094 89.257383265 7.3410666113
49364 21 45.578462828 91.254366427 8.5187338561
49365 22 42.1283374382 91.3086195645 6.5489333868
49366 22 41.0875190559 91.1246265963 8.6742439272
49367 22 45.4291731598 88.9220427509 8.0031139074
49368 22 44.7863670195 90.5509464364 6.4558611939
49369 23 43.3136749542 90.2044746751 8.3904532477
49370 24 45.762736416 87.2022182899 8.4902696669
49371 20 5.3318016614 13.1884978404 78.0207166154
49372 20 7.6085532875 12.9858904336 79.6012601766
49373 21 4.5885804467 14.565405056 77.6152211821
49374 21 8.4151758413 14.2685094376 79.269848338
49375 22 4.2914790406 12.2292181823 78.1968522328
49376 22 6.1486855414 13.0912163524 76.8643764661
49377 22 7.8017879971 12.8120933136 81.0003363467
49378 22 8.2188075452 12.0173409721 78.7181500529
49379 23 6.1638951279 13.4944668283 79.2869661383
49380 24 7.9602445748 12.4517963562 82.9042473158
49381 20 6.7063142557 38.7787674327 55.4555271421
49382 20 4.0062076246 39.4156805598 55.4668454691
49383 21 6.7514753158 37.3234737874 55.9689676113
49384 21 3.5681228928 38.2001296586 56.4405957485
49385 22 6.7330666649 39.6113660146 56.6082192356
49386 22 7.8343492337 39.0525586976 54.6234897995
49387 22 4.2384325676 40.5626667199 56.2974797132
49388 22 96.3847489032 39.5294250689 54.6602509772
49389 23 5.3038332336 38.8868060084 54.7002860512
49390 24 9.4307290986 43.156527935 59.7730479538
49391 20 25.2642173244 27.3961785511 52.949406346
49392 20 23.0688360507 29.2959737649 52.7395963674
49393 21 25.3870352031 26.3592888443 51.8702366078
49394 21 22.237827647 29.5219661449 54.0967666657
49395 22 25.4675730504 26.7430830226 54.2069566589
49396 22 26.1859594237 28.4323199388 52.5793625318
49397 22 24.0268716283 30.3672861521 52.5741242978
49398 22 22.1182836646 29.2607092255 51.7409644766
49399 23 23.8198678465 27.8810893531 52.839029273
49400 24 21.1464977228 28.6469939917 50.2828646345
49401 20 19.1911398129 71.6065926564 21.6248607324
49402 20 16.8669541075 72.838325959 22.5495025683
49403 21 18.6061413261 71.0193492122 20.3494443
49404 21 16.1690529706 72.7112052453 21.1580031296
49405 22 20.2356997909 70.6714743525 22.0202538574
49406 22 19.7056092209 72.7709772365 21.0530513704
49407 22 15.837641132 72.5492876916 23.4820017553
49408 22 17.3626219971 74.1581738402 22.5755066584
49409 23 17.9815754648 71.7006937881 22.603662166
49410 24 18.6408446262 75.3717604037 22.9524724246
49411 20 23.8276316576 29.3284321076 13.551245543
49412 20 26.1990550087 27.7949391122 13.0039436328
49413 21 23.7912446394 30.3513843704 12.3796770992
49414 21 26.9724428387 28.353933509 11.781975895
49415 22 23.429245256 30.0902209909 14.6976704638
49416 22 22.9725835015 28.2953775363 13.1309708066
49417 22 27.2112501839 27.5983182585 13.9590794737
49418 22 25.4399787822 26.6228842609 12.6372672547
49419 23 25.3934894557 28.9534306791 13.5916547765
49420 24 24.5704319428 25.4776753588 13.9217570566
49421 20 19.1434344678 30.807952585 50.7678689764
49422 20 20.3167988776 33.1883557658 51.6836245226
49423 21 19.3698010074 29.8110979521 51.937024091
49424 21 20.2832180563 34.3015740248 50.5806956518
49425 22 20.2903270881 30.5106828071 49.9468693411
49426 22 17.8735368892 30.4782244645 50.1782870348
49427 22 20.112227133 33.9735296223 52.8309848423
49428 22 21.6319697642 32.6520915629 51.6207657149
49429 23 19.0767405246 32.2346230233 51.4215257442
49430 24 26.8685200183 36.0831348147 53.5004498519
49431 20 3.4839594392 5.9593514453 63.2238281228
49432 20 6.0060933295 7.2628298453 63.863266827
49433 21 3.7003630448 4.4604495021 63.3956609051
49434 21 5.4550030537 8.7253915403 63.6707617285
49435 22 96.1713844088 6.2131438812 62.1051845501
49436 22 96.4783823355 6.4446925308 64.4789463985
49437 22 5.9599126846 6.8804387654 65.2210919045
49438 22 7.2997406868 7.283118648 63.3015597734
49439 23 5.0094819003 6.3540336671 63.0059737135
49440 24 93.4993238436 3.5115611907 58.5354216379
49441 20 39.9685948635 36.160211686 73.0444878818
49442 20 38.4237835412 35.3868238559 70.6373322918
49443 21 40.2533302959 34.927075285 73.9696909571
49444 21 38.3460518906 33.8103025101 70.653701773
49445 22 39.6590713597 37.2851224315 73.9042130325
49446 22 41.1066947339 36.2625443282 72.1959875182
49447 22 37.1972884726 35.7920386696 70.0672066479
49448 22 39.4943476092 35.6811003573 69.8090365449
49449 23 38.594306765 35.799521861 72.2108603611
49450 24 42.2424561069 35.623105624 71.0233714276
49451 20 76.2751686841 56.4269389242 63.1287915922
49452 20 75.8858556521 56.5554627364 65.9163739244
49453 21 74.8895622586 55.7374563777 62.7740883203
49454 21 75.2640024477 55.2923000299 66.4038103035
49455 22 77.1690358955 55.834457246 62.1920831101
49456 22 75.9798632439 57.8180642034 63.0404899338
49457 22 76.6889891679 56.9300900053 67.049048481
49458 22 74.7702988958 57.434363565 65.708995983
49459 23 76.5190271835 56.0024548927 64.5780051445
49460 24 69.4246811272 57.9588417414 64.2572568536
49461 20 52.3679623751 87.3038961529 11.777616936
49462 20 52.7615782421 89.8613703499 10.6468318852
49463 21 50.8615024086 87.0489064063 11.3820835011
49464 21 52.0405727518 90.1023291127 9.3230646825
49465 22 52.2762932806 87.8420311537 13.1084276926
49466 22 52.9914057577 86.0364306114 11.6006955836
49467 22 51.8990468947 90.4396339645 11.5444594003
49468 22 54.0358721957 90.5892042524 10.5325729067
49469 23 52.9026363998 88.2909290971 10.7416065042
49470 24 54.6219931613 85.4417975157 11.2198479118
49471 20 3.7736365841 43.6761420371 59.5469620339
49472 20 6.4390707833 44.4334410056 60.6556903781
49473 21 96.5244975024 45.0354637529 59.4233022962
49474 21 6.3647159228 45.9001465178 60.8704579709
49475 22 3.4041512031 43.1788839693 60.8127438573
49476 22 3.312278098 42.9008834092 58.4568481284
49477 22 6.2181482655 43.8525582741 61.9478504511
49478 22 7.7603778868 44.1993106551 60.2443954714
49479 23 5.2629937166 44.2072615459 59.5165615689
49480 24 7.2188848039 42.5835025544 62.7817585915
49481 20 95.0029776133 74.1953091775 71.2884634825
49482 20 94.9418025237 76.3092172049 73.0464522195
49483 21 94.6648309024 74.6032366481 69.8391563903
49484 21 96.2223636501 76.7799099433 72.4200155604
49485 22 94.2294962434 72.9941634197 71.3971568374
49486 22 96.4377860222 73.9861539782 71.4038917097
49487 22 94.1647666378 77.5133562393 73.1012665964
49488 22 95.197914749 75.6629500886 74.2779049024
49489 23 94.2629835248 75.3350927659 72.057080778
49490 24 33.417622042 38.6521144184 61.638607567
49491 20 57.8528610434 83.5596813415 9.8963145589
49492 20 55.2773336471 82.7723560675 10.3953685926
49493 21 57.4300607299 84.4150101173 8.6101691009
49494 21 54.4682135782 81.8128238517 9.4943736414
49495 22 59.1690608688 83.1457673178 9.4351161196
49496 22 57.8963570933 84.5452176474 10.9142156675
49497 22 55.1192512291 82.4510465373 11.7811995139
49498 22 54.8246005681 84.0642355209 10.043069296
49499 23 56.75217713 82.4595586675 9.957031303
49500 24 58.525787029 80.1855103443 15.0073810474
49501 20 35.752658375 89.1210956418 20.4931215747
49502 20 35.3478177208 90.8385816054 18.344697327
49503 21 37.0881274182 88.5067256288 20.1703154062
49504 21 36.8488523735 90.8377397464 17.8552966102
49505 22 35.0502673232 88.0838317754 21.1304088614
49506 22 36.0605917006 90.2359976188 21.3511630073
49507 22 34.5237312691 91.0053632335 17.198459486
49508 22 35.4358387595 91.9548866808 19.2209790386
49509 23 35.2446432195 89.4030248774 19.067667155
49510 24 29.1195575279 89.9012183441 22.7522035151
49511 20 42.8617837342 50.6910727247 38.175435127
49512 20 45.0477174788 51.4534228475 36.5741257097
49513 21 41.5027426381 51.448652313 37.8395333735
49514 21 44.5918040434 52.4849807804 35.4014160791
49515 22 42.8318509687 50.5763928167 39.5980833499
49516 22 42.7940608521 49.4433441005 37.5069055163
49517 22 46.3433385278 51.9701372129 36.9200362316
49518 22 44.9872907083 50.1987722712 35.8974581283
49519 23 43.9900619159 51.6614555681 37.6958560988
49520 24 47.7501785089 45.5260804883 37.3024273116
49521 20 91.5449948725 10.5029114068 68.2911647116
49522 20 89.1056615596 10.2166419203 69.6494574886
49523 21 92.0279413368 9.1286700782 68.1202673283
49524 21 88.2865327222 11.4608534445 69.3620093994
49525 22 92.7376285001 11.2320548678 68.6324917788
49526 22 90.9020016524 10.7238152166 67.031650061
49527 22 88.6399264355 9.3486384891 68.6255698268
49528 22 88.7734078619 9.7129108919 70.9207581656
49529 23 90.6124021457 10.4464600818 69.548247325
49530 24 86.4585761457 4.1085730059 74.5359814655
49531 20 86.6889649005 10.646158398 63.1189699035
49532 20 86.6645509886 11.0397462031 66.0570579225
49533 21 85.3069129909 11.1419291815 62.5355615948
49534 21 85.6450597018 12.1833181571 66.1267451423
49535 22 87.0995114881 9.5313125449 62.4334160324
49536 22 87.5878832661 11.7569352658 62.8321765935
49537 22 86.3743902425 10.3156164804 67.3042253073
49538 22 87.9716774445 11.6521892943 66.0910129034
49539 23 86.3094735572 10.2835977752 64.6255234098
49540 24 94.3440826115 11.5628961131 64.0394024443
49541 20 7.0284001671 71.5828335238 92.0336472702
49542 20 5.028854012 70.0250201564 90.9678537367
49543 21 6.1030567819 72.6792146021 92.6079822093
49544 21 5.6021693663 68.5787063407 90.9503617768
49545 22 8.0909665744 72.367352601 91.5233871574
49546 22 7.3495506795 70.7160928812 93.1293735693
49547 22 4.2945190871 70.0852598471 92.1696542737
49548 22 4.1662010627 70.0622490336 89.7790552447
49549 23 6.2501295547 70.9523746493 90.8513965707
49550 24 7.4590017076 70.4054468986 94.800744366
49551 20 5.1617367831 39.9901090388 59.9497448104
49552 20 7.8426929921 40.5553706083 60.4617821812
49553 21 5.0110346626 38.4820588941 60.214275626
49554 21 8.7719744067 39.2859407291 60.5555091533
49555 22 4.2996918431 40.2508982587 58.8354040727
49556 22 4.6845523762 40.5989601981 61.1275055951
49557 22 8.6687718435 41.5886122593 59.8694875828
49558 22 7.3878365575 40.8691034073 61.7516972968
49559 23 6.6911233772 40.0882323858 59.5085171382
49560 24 12.0801623638 42.8983578321 57.3098619682
49561 20 21.8316774344 91.600183409 64.8873415685
49562 20 24.6020484264 92.3639366301 64.5212264298
49563 21 21.0384591472 92.7146176866 64.1465991609
49564 21 25.5714023309 91.1499759071 65.0706797576
49565 22 21.0883159098 91.1924430182 66.0290894947
49566 22 21.8787280002 90.51306278 63.9212615602
49567 22 24.5470469697 92.2025803158 63.1026004223
49568 22 25.2199729553 93.6105427756 64.9279378818
49569 23 23.2407623729 92.1785405635 65.3476513788
49570 24 23.3513265257 93.6439365172 57.5369768269
49571 20 67.6272185556 6.0068135867 87.0450712708
49572 20 68.7854295028 5.5420325695 89.5851470478
49573 21 69.0276978241 5.4898373096 86.380096176
49574 21 69.0896212328 4.0359720184 90.0641648366
49575 22 67.6175839467 7.4291998979 87.095302193
49576 22 66.6503814597 5.3873175875 86.22014296
49577 22 70.0867564854 6.0288328773 89.1214698014
49578 22 68.2489782202 6.1691801318 90.7813351913
49579 23 67.6876453261 5.334748168 88.5251529876
49580 24 63.4476690852 12.3163693 4.1742080775
49581 20 75.8287027779 41.2378376629 19.9431070076
49582 20 73.5473583431 42.5618948393 20.9259306567
49583 21 75.3412663988 41.0989309228 18.4270124323
49584 21 72.7787410476 43.3778433204 19.8143025758
49585 22 75.5463058428 39.9706527411 20.4900347583
49586 22 77.2261887697 41.5264082309 19.8042938074
49587 22 72.9470193139 41.2698283061 20.9477254516
49588 22 73.4156541747 43.2919736992 22.0860124017
49589 23 75.0311816556 42.4667647688 20.4602890725
49590 24 73.4582148257 42.7624443685 23.8329634314
49591 20 88.5488185803 68.1641375378 58.8249276048
49592 20 87.898248629 66.3776191336 60.911241364
49593 21 88.2802655494 67.2926263607 57.5997420947
49594 21 88.8177457709 67.0906737331 61.9059445793
49595 22 89.9255387161 67.9153214241 59.0950708139
49596 22 88.152864216 69.477905326 58.3425423799
49597 22 86.8175822525 66.0272186968 61.7867747565
49598 22 88.763773253 65.3595309452 60.3471958131
49599 23 87.5477546523 67.6126263324 59.9211216034
49600 24 86.9645334234 74.408673672 55.2090495257
49601 20 90.4133492548 85.6061471066 18.8576700967
49602 20 89.4957229107 88.2739983766 19.2949690935
49603 21 90.4132557149 84.6137823885 20.1084855373
49604 21 88.6641532676 88.3642643727 20.6251999027
49605 22 91.534986104 85.3400261128 18.0150627463
49606 22 89.2478421959 85.4544254012 18.1147762716
49607 22 90.1867020956 89.509379735 19.2653169476
49608 22 88.4788507409 88.1400492507 18.3297309442
49609 23 90.5221361496 87.0737880177 19.4804587
49610 24 70.7371393569 14.8169338265 22.21781011
49611 20 54.5839224251 14.7173138412 11.2490136503
49612 20 56.567061683 16.3862526006 12.1760594615
49613 21 55.1903415473 13.2727772834 11.4414065009
49614 21 57.3761817519 16.0775709559 13.3753905454
49615 22 54.9395610958 15.0817452618 9.9276410688
49616 22 53.1638933192 14.54454566 11.4979700738
49617 22 57.4328669267 16.0154604673 11.0803892863
49618 22 56.2967313941 17.8025401109 12.2817408319
49619 23 55.2474944215 15.5650658856 12.374625945
49620 24 32.829256119 32.4046785476 55.5211921465
49621 20 29.3023344776 38.3669112866 71.8056455474
49622 20 27.5731560274 36.8576451234 70.1121057962
49623 21 28.3891980484 39.3879927516 72.5469491943
49624 21 27.8527467657 35.3531494947 69.9171686605
49625 22 29.8825624299 39.0431111685 70.698881541
49626 22 30.2942314962 37.9698344436 72.736648096
49627 22 26.1651000277 37.0042221347 70.2604600655
49628 22 28.2190489842 37.3836199381 68.9422023624
49629 23 28.3993938966 37.1713779224 71.4781623842
49630 24 39.9207024386 39.2913660428 73.3157535696
49631 20 69.2070137977 80.9371969193 71.5024827562
49632 20 71.8454935415 80.5470420283 72.5355373275
49633 21 68.0168122073 80.9857441235 72.4008398825
49634 21 71.6841372272 79.788620581 73.8872823119
49635 22 69.164172527 79.5713274111 71.0817403204
49636 22 68.9306034158 81.8861591273 70.4167652256
49637 22 72.2930819265 79.5767527248 71.5377472956
49638 22 72.9334560296 81.385065924 72.8902405993
49639 23 70.4741987195 81.2953611672 72.3368585961
49640 24 67.9182211608 78.3793485627 70.263453342
49641 20 53.2833437617 66.7771280139 11.4748937823
49642 20 54.6180644858 67.8911881319 13.7261651417
49643 21 53.8416833792 67.6806298342 10.3210417941
49644 21 55.5404613644 69.1376071976 13.1823242075
49645 22 51.9556385296 66.240863811 11.2823419139
49646 22 54.3000288518 65.7473473389 11.5043588484
49647 22 54.2505462487 68.3797469897 14.9921340449
49648 22 55.479941054 66.7928427158 13.7696611917
49649 23 53.37173896 67.7464819184 12.6887141955
49650 24 55.2255125468 65.0440208882 12.8930053205
49651 20 63.4353218194 50.5174626845 59.2457635805
49652 20 62.3962806951 49.1173575757 56.9512300209
49653 21 63.7106097226 49.7451973332 60.5471841029
49654 21 60.8840212553 48.8501141032 56.967693042
49655 22 62.7264765151 51.7214146391 59.6151526154
49656 22 64.7967949527 50.6976205172 58.7989235147
49657 22 62.4110599981 50.2309499942 56.0447349241
49658 22 62.9505045573 47.8877756906 56.4927910085
49659 23 62.6728781568 49.4154692126 58.4254187245
49660 24 66.7310128469 50.9443787532 58.473685309
49661 20 42.3707928392 26.8788094064 63.735491334
49662 20 44.9946803598 27.4332203485 64.4961577387
49663 21 41.5542831188 26.7156758342 65.1063184565
49664 21 45.7676004904 27.4659593108 63.2456229177
49665 22 41.8183462349 25.9798910409 62.7994376312
49666 22 42.1178609703 28.3079118819 63.4164267612
49667 22 44.6895532309 28.791887285 64.6864178797
49668 22 45.826156463 26.7802183599 65.5322991264
49669 23 43.8233738277 26.4630245849 64.1617526235
49670 24 45.0541717313 34.8667420544 56.6245887168
49671 20 61.0257341922 84.9330340412 66.8701066669
49672 20 58.8792742823 83.9633059771 68.3861077024