ITEM: TIMESTEP
15750000
ITEM: NUMBER OF ATOMS
4000
ITEM: BOX BOUNDS pp pp pp
3.23005382 96.76994618
3.23005382 96.76994618
3.23005382 96.76994618
ITEM: ATOMS id type x y z
49081 20 18.9892807252 33.8517406824 16.1934668825
49082 20 20.2174595119 34.7509396677 13.7235460247
49083 21 18.7776934887 32.3401360219 16.040061459
49084 21 20.5801136746 36.2441169694 13.7443118808
49085 22 17.7625985768 34.5262568462 15.8536364535
49086 22 19.4437910622 34.0101037202 17.5195819365
49087 22 21.2625807293 34.0649180971 13.0033823934
49088 22 19.0112625999 34.5926701698 12.9885095506
49089 23 20.2067024243 34.250127084 15.238892281
49090 24 12.4409924986 34.5030589529 14.3326778038
49091 20 48.1030109829 59.7347901378 58.9583154913
49092 20 50.134697445 58.1212269946 57.6692422347
49093 21 46.7917687718 59.9016653057 58.1883886373
49094 21 51.6135631432 58.7240916008 57.8359303229
49095 22 48.2548262282 61.0397651761 59.4227410569
49096 22 47.8586847841 58.7705809273 59.9763101398
49097 22 50.0405027734 57.1204436862 58.6566493384
49098 22 50.0666939432 57.5149014123 56.3593095821
49099 23 49.170114075 59.3668977411 57.8769943356
49100 24 49.6047004149 55.4393447407 58.4151293364
49101 20 9.0646326679 15.8209910311 81.4809443136
49102 20 9.8526501371 15.3526367901 84.0737765899
49103 21 9.7879111776 14.7895266381 80.5917540968
49104 21 11.2034503687 14.5917833056 84.1643232058
49105 22 9.0974371082 17.082844179 80.7823883975
49106 22 7.6843486623 15.3247619021 81.7264865311
49107 22 10.0209096955 16.3150687426 85.1675385513
49108 22 8.8642140945 14.3474571068 84.3139870335
49109 23 9.9125624382 16.1194768276 82.7148290337
49110 24 14.1749695453 21.4528408703 81.503206808
49111 20 95.2221415811 90.1208500113 12.2108656554
49112 20 93.7456143802 91.0471755654 14.4890765038
49113 21 94.2055500309 89.1415808782 11.6348002283
49114 21 92.7408088565 89.90477286 14.3879598802
49115 22 96.0976749736 89.3593417476 13.0736308526
49116 22 95.8763595882 90.661697669 11.0490721303
49117 22 94.7458364492 90.6952784903 15.4852763574
49118 22 93.0137582624 92.1907007495 14.8534143845
49119 23 94.3191074602 91.2014228479 12.9996407977
49120 24 3.7756907201 89.0311102653 14.2988163627
49121 20 45.5338442994 55.3785438107 63.5456053525
49122 20 47.3897693037 57.5313644333 63.6031323863
49123 21 44.8807487709 55.430364911 62.1230506695
49124 21 48.0870156613 57.7446353879 65.002489176
49125 22 44.4565453591 54.7913003664 64.3643600303
49126 22 46.6547328295 54.533597963 63.3357018341
49127 22 48.3685707373 56.736555968 62.9237521481
49128 22 47.3131601318 58.8013555519 63.106342018
49129 23 46.0007019021 56.8430043655 63.9553100811
49130 24 49.4147208935 56.0729839716 55.3480498058
49131 20 82.0065449688 44.3806845063 16.6721105117
49132 20 81.192934985 42.843730535 18.9014467663
49133 21 82.493887808 45.735796927 17.3601899599
49134 21 80.4162732588 41.7639995575 18.1351679681
49135 22 80.6947415183 44.677299505 16.3133850245
49136 22 82.8671119785 44.0459987715 15.5865800609
49137 22 81.6981439437 42.0935405983 20.0035337781
49138 22 80.1197518 43.7604214801 19.0744955672
49139 23 82.2813651725 43.3681151716 17.8434170438
49140 24 82.9412891131 39.9450228106 10.3686068294
49141 20 45.0325640162 50.5444021735 94.7735242573
49142 20 47.8363287498 50.9928324175 94.8804403543
49143 21 44.2507575959 49.8374276671 95.9264034307
49144 21 47.8939493235 51.8538671267 96.1898117675
49145 22 44.4502781863 49.8790529192 93.6372016449
49146 22 44.7176151986 51.9460039206 94.9422702231
49147 22 49.040561324 50.3028821714 94.8562135222
49148 22 47.6503714438 51.9418881654 93.816143459
49149 23 46.5044142225 50.1126220304 95.1265438111
49150 24 48.6725753875 53.1894297098 92.8712034664
49151 20 37.9568323985 37.6771481204 50.4491785631
49152 20 38.1053737476 38.4471685143 47.7390472617
49153 21 38.1991942596 38.8233859613 51.4105815768
49154 21 39.6508398492 38.6023511957 48.0208829574
49155 22 39.2687293889 37.0455667672 50.3820169204
49156 22 36.9489400583 36.9271452634 51.0679449511
49157 22 37.9880747226 37.2308692939 47.0798716403
49158 22 37.698288136 39.670950926 47.0693016325
49159 23 37.3590189465 38.4170486689 49.1658112399
49160 24 36.2417784721 35.3338802769 50.3856649762
49161 20 35.1457715533 48.3612746257 37.667045812
49162 20 36.1250406864 50.9799239123 37.8822811043
49163 21 34.7388730216 47.9532536153 39.1559202787
49164 21 36.5741257097 50.7459806416 39.4240991501
49165 22 36.5080865457 47.8549431884 37.5429183748
49166 22 34.3549853033 47.6492489651 36.7612054944
49167 22 37.28643199 50.6752644829 37.0820473252
49168 22 35.6281567782 52.3070679051 37.8258765492
49169 23 34.9693553163 49.9306869397 37.7233568272
49170 24 82.9020023584 32.7692035081 20.0167229029
49171 20 71.0301062998 84.7245336211 31.7948919893
49172 20 72.2307843581 85.7235396715 34.0744591661
49173 21 71.5727312154 83.2980502626 31.397160367
49174 21 71.4221319887 86.8775413235 34.7014570646
49175 22 71.7557887847 85.5920225828 31.0036380398
49176 22 69.6488962492 84.6596169358 31.3721852157
49177 22 72.8405709164 85.0652059091 35.2042339861
49178 22 73.1534618564 86.2982487702 33.1154881897
49179 23 71.1586301119 84.8044166892 33.3100511658
49180 24 73.6910356178 87.6047204468 31.9912322234
49181 20 94.2086368474 14.7967292098 78.7382611297
49182 20 96.0465086525 14.8768928975 76.4790856495
49183 21 93.883118022 16.3244227318 79.047410474
49184 21 96.6481572401 16.2902806711 76.729772561
49185 22 95.3088530613 14.4603597568 79.5924674268
49186 22 93.0562253735 14.0762849588 78.9702400628
49187 22 3.5387551082 14.0702984057 77.1178695744
49188 22 95.8812236627 14.7258259714 75.0637335382
49189 23 94.6089875867 14.8098247947 77.2203892964
49190 24 94.5187215905 17.3208096652 85.1733380246
49191 20 3.8889310492 95.8565291311 31.8370784808
49192 20 6.0157092304 94.561749941 30.5847664019
49193 21 96.0342549266 95.4477598015 31.3704079578
49194 21 7.1980628239 95.4781602665 31.1726646253
49195 22 4.2199023149 3.3725403318 30.9288996658
49196 22 3.764003846 96.2469646418 33.1952777178
49197 22 6.6053472959 93.2455501156 30.542018671
49198 22 5.7250527229 95.1754651748 29.2951319059
49199 23 4.8265178709 94.6042170522 31.6167920343
49200 24 8.8328221067 89.3704729948 25.7291105894
49201 20 63.7731879106 73.4172443528 69.923716453
49202 20 61.689025569 74.943908936 70.9071948812
49203 21 64.2463126862 72.8620850917 71.3026815461
49204 21 60.7661609909 75.301979644 69.7609570403
49205 22 65.0082886494 73.5008690166 69.1968179494
49206 22 62.8564969655 72.4983084503 69.38754579
49207 22 61.1544450841 73.7080598782 71.4360694327
49208 22 61.5836996502 76.0923917344 71.7819799546
49209 23 63.1886571233 74.8024766188 70.3249090513
49210 24 61.6579703247 76.8777526707 73.3876857469
49211 20 56.558362473 69.9751633938 70.7079549105
49212 20 58.2617239129 71.876361706 69.56134291
49213 21 55.3889267387 69.7241023227 69.6356135845
49214 21 57.3290376462 72.4190801615 68.4736610416
49215 22 56.0524987351 70.8904512405 71.6959232536
49216 22 56.7427296009 68.6904865121 71.3866803695
49217 22 58.1844599618 72.76798396 70.6869084347
49218 22 59.6191748308 71.9393140535 69.0185309146
49219 23 57.7837350629 70.3939414919 69.8971511235
49220 24 56.4466758415 72.1110532959 73.1834881618
49221 20 87.1098008763 72.7455343858 74.0861481231
49222 20 87.7569098516 74.8202491983 72.2598752647
49223 21 86.2534431617 73.5203253142 75.1288373032
49224 21 87.0843580256 75.930287101 72.947861173
49225 22 87.8670998448 71.7795479174 74.8393313364
49226 22 86.1746825724 72.161377758 73.1672122206
49227 22 88.9793827049 75.3516493268 71.7410094817
49228 22 86.8994296584 74.3304743219 71.2311235285
49229 23 88.0063807445 73.9020616149 73.4494220758
49230 24 90.8702916289 75.2610091711 71.2730294003
49231 20 10.7082034086 89.1936825983 11.4869230125
49232 20 11.5931843302 89.2581315841 14.185633093
49233 21 10.5117789886 87.6854453739 10.9810405666
49234 21 11.6485505925 87.8272518507 14.8123503718
49235 22 11.2309136811 89.8763367327 10.2913615863
49236 22 9.3905911308 89.6020777683 11.8666388515
49237 22 12.6159401593 89.8642700866 14.9048613253
49238 22 10.2902671695 89.7299468012 14.5815874573
49239 23 11.8053047441 89.1748810799 12.6313742415
49240 24 11.1020624794 60.359449539 6.4211204779
49241 20 69.5903402766 83.3626863282 26.9245504138
49242 20 71.8845932165 84.9594122908 26.7335419536
49243 21 70.1017228681 81.865580351 26.7648778175
49244 21 73.0596413443 84.0783600447 26.2455443352
49245 22 68.2659089407 83.3703565994 26.3512444135
49246 22 69.6593727172 83.5599619612 28.3258715413
49247 22 72.1459436758 86.2761733556 26.1264680522
49248 22 72.1357478275 84.9203126158 28.1394465358
49249 23 70.6408868077 84.2007102239 26.1243166347
49250 24 72.0292058901 86.3845860908 29.2861520762
49251 20 73.2658032671 63.1625594933 70.2854352167
49252 20 71.1214947746 64.2695105795 68.7771979923
49253 21 72.9129707931 63.7542928524 71.6620618126
49254 21 70.3461426069 65.2821734542 69.6875282248
49255 22 74.6854582135 63.2496451331 70.1465284766
49256 22 72.8281301108 61.8300837266 70.2719654722
49257 22 70.9754790027 64.8575023429 67.5195541395
49258 22 70.3611089897 63.042921971 68.8602614167
49259 23 72.6457273207 64.1954269847 69.2680018075
49260 24 68.3892880587 62.2958188507 68.6103228244
49261 20 19.0730924688 87.1180323868 61.1643603127
49262 20 21.6393594157 88.0706426506 61.5907151421
49263 21 18.1798800366 88.4582719645 60.9672717595
49264 21 21.7192424838 89.6163893718 61.4185082003
49265 22 18.8629083307 86.7772665589 62.5444478846
49266 22 18.6299939987 86.0848842757 60.2408409554
49267 22 21.3200142232 87.891233137 62.9784729851
49268 22 22.9143081486 87.6582252652 61.1084234571
49269 23 20.5077137979 87.6016336303 60.7032086434
49270 24 16.1975826378 90.5288710218 72.4630439109
49271 20 10.7258263243 24.846561705 86.2931040761
49272 20 7.9133249648 24.7914667084 85.9635630353
49273 21 10.8872481166 24.0235041922 87.5626274952
49274 21 7.19101927 24.8119519449 87.3242878495
49275 22 11.7272831199 25.8713847657 86.4550216298
49276 22 10.9304822548 23.9119111006 85.2477022391
49277 22 7.1746684968 25.6536238963 85.1255391396
49278 22 7.9477195832 23.3961321341 85.6476788188
49279 23 9.2837872817 25.3782424532 86.403574689
49280 24 11.7408744663 22.7612768847 84.0990323609
49281 20 23.1671464776 77.9715146321 29.8699345444
49282 20 22.4795347289 76.0787349102 31.8237022762
49283 21 22.7874680545 77.4150458124 28.4438253455
49284 21 21.1895260733 75.2270541902 31.5888236064
49285 22 24.4820367445 77.537021832 30.0497182176
49286 22 23.0139281339 79.3785416929 29.7804168675
49287 22 23.5963075037 75.2500650037 31.309419948
49288 22 22.4604525908 76.2957474604 33.2102441006
49289 23 22.1897481423 77.3611668344 30.9274030276
49290 24 24.0421186307 76.75671205 34.1841814599
49291 20 22.8378860565 37.5538625422 47.7286643337
49292 20 22.232589413 34.7296125722 47.7343702671
49293 21 24.2293854952 37.8085716691 48.1173225865
49294 21 20.7584942493 34.8079054621 47.1535810755
49295 22 22.13091155 37.9080981146 48.9532886045
49296 22 22.7000082552 38.518632992 46.6857880738
49297 22 22.8018731979 33.5856196887 47.0772525233
49298 22 22.1227735794 34.6418721532 49.1360655541
49299 23 22.8955066302 36.0700392297 47.232154585
49300 24 18.2690235541 30.588133838 47.4361650903
49301 20 50.4029698563 23.0744484443 75.7517194465
49302 20 52.5182809821 24.8237379713 76.2523449504
49303 21 49.184893378 23.9197684515 76.1088547555
49304 21 53.8602978178 23.979353363 76.0105443286
49305 22 50.0533177386 21.7995932513 76.255244687
49306 22 50.5738672396 23.2366466176 74.3092407664
49307 22 52.3156735752 25.4141617719 74.9942333981
49308 22 52.9462259896 25.7914081578 77.2476094051
49309 23 51.4145102522 23.8111686365 76.7163963564
49310 24 50.1045775996 20.3383130529 77.6349580993
49311 20 52.5940482949 8.1081592066 91.5547230213
49312 20 54.9248753327 6.6727802043 90.9255737053
49313 21 51.6834374428 7.7114284611 92.7426796543
49314 21 55.2291606026 5.1744301465 91.3019782322
49315 22 51.7365681016 8.5972325338 90.5403764286
49316 22 53.4862317882 9.1329542053 92.0825686339
49317 22 55.2996896814 6.8887357538 89.5855212074
49318 22 55.6992921016 7.4545305007 91.9168159447
49319 23 53.355182399 6.8355115551 91.1076023358
49320 24 55.6990114819 12.9364078305 92.4875028279
49321 20 93.8928461708 94.6118873233 9.2897831888
49322 20 91.6569621237 94.2065789697 11.1235018227
49323 21 94.9158919735 95.6361491447 9.6674692122
49324 21 90.7260531149 93.2091630975 10.4504448812
49325 22 93.7126883381 94.8936294791 7.9082925186
49326 22 94.4584818999 93.321691588 9.5149617717
49327 22 92.3703908827 93.4776225886 12.1374461939
49328 22 90.7318525882 95.1152254841 11.7613035788
49329 23 92.5496133165 94.9968975203 10.0551265881
49330 24 74.6718949291 22.1038785211 46.9166445281
49331 20 91.202171167 64.9524453336 92.0989381151
49332 20 88.7061526793 64.7893117613 93.3002709527
49333 21 91.7486312182 66.3052192569 92.3774063746
49334 21 88.8317767547 63.270598069 93.3540563908
49335 22 91.5684733855 64.6884757574 90.7856380263
49336 22 91.7120571203 63.9938485167 93.0217091532
49337 22 89.1136124504 65.2654298135 94.5945824432
49338 22 87.3531916762 65.0019279367 93.0898997347
49339 23 89.6465092172 65.1212848393 92.1193298116
49340 24 38.5389311487 36.0206501666 56.2367723231
49341 20 79.9457676002 43.6481736093 8.631767462
49342 20 80.7040019677 42.2195388333 10.7996854233
49343 21 80.3118827389 42.5419708422 7.546396029
49344 21 79.3296203292 42.0159024876 11.4470750183
49345 22 80.2956067976 44.853715742 8.0033477572
49346 22 78.571198882 43.4995387203 8.9413657978
49347 22 81.1336306933 41.0217605116 10.2011704221
49348 22 81.6425812476 42.3880041794 11.8760396107
49349 23 80.7508654538 43.4749377286 9.8624157019
49350 24 85.1703447481 40.1711087305 11.9497583999
49351 20 72.6773438043 63.8572802739 11.7099688858
49352 20 73.8185304911 64.4795076378 14.2002253162
49353 21 73.7277032556 62.9370348128 10.888641861
49354 21 75.2447332299 64.5159881959 13.759839503
49355 22 73.0008982919 65.1694578839 11.2300624681
49356 22 71.3535672476 63.3895808121 11.4376742592
49357 22 73.4183668315 65.8453771461 14.3106959291
49358 22 73.803844728 63.8868388798 15.5257791308
49359 23 73.0035174089 63.5887272429 13.1608100323
49360 24 66.5158710945 61.5876283256 19.2195759402
49361 20 49.6607308104 92.0613350783 18.2639723999
49362 20 51.8958665383 93.3134600775 19.7240365797
49363 21 50.1099093735 90.9355824738 17.3775883799
49364 21 51.275697052 94.0723492242 20.8655038862
49365 22 49.5548436522 93.2125305336 17.4145366374
49366 22 48.4141246649 91.5852170262 18.8080939537
49367 22 53.1803563402 92.8488474321 20.1506720288
49368 22 51.9581641066 94.3234102953 18.7326072606
49369 23 50.8715111771 92.145053282 19.2865505032
49370 24 54.5089034314 92.238031935 21.2682866627
49371 20 7.1254478054 21.1736242916 79.7563493182
49372 20 8.3542533094 20.9032940027 82.1788454505
49373 21 8.0622498274 22.3261293054 79.3261593532
49374 21 9.5004911504 21.720739122 81.5119995579
49375 22 5.8611626203 21.5681755576 79.2285037056
49376 22 7.6900265337 19.9713560551 79.2357062773
49377 22 8.3402597415 21.2864334018 83.5753960435
49378 22 8.7237639462 19.5401371513 82.0734259918
49379 23 7.0698476934 21.2861527821 81.2961094863
49380 24 8.0628110668 21.5641533422 85.3041067942
49381 20 96.553494869 45.7450573763 57.5668160525
49382 20 95.5448542097 43.0923595689 57.2869446946
49383 21 4.5528669158 45.6704125422 57.9990638951
49384 21 94.1348338723 43.3405209033 56.9283127473
49385 22 96.0118988923 46.7991584233 58.3390814039
49386 22 96.5218783854 46.0342827235 56.1627822682
49387 22 96.1978561983 43.0335229766 56.0496925384
49388 22 95.6473739318 41.8993517817 58.0889557317
49389 23 95.9424922921 44.380965126 58.0681898756
49390 24 93.5557283987 48.6668694541 60.9770934482
49391 20 23.3617094537 29.3537814184 46.8319909255
49392 20 20.4964890108 28.6174353857 47.3223270413
49393 21 23.4708705081 29.381936926 45.2679103854
49394 21 20.1949163979 27.8586397789 48.6315113748
49395 22 24.5536883021 28.7599901817 47.3488923707
49396 22 23.1384297306 30.727134118 47.0934349247
49397 22 20.026170432 29.957207264 47.4848058343
49398 22 19.738535263 27.8447958748 46.390108474
49399 23 22.1066847179 28.3802182187 46.9788485565
49400 24 18.3901577147 26.9654273468 45.2510732048
49401 20 27.0372659841 76.5465279118 32.9695659576
49402 20 29.7971605082 76.3296089015 33.2601944031
49403 21 27.3625041898 78.1254812949 32.6295484488
49404 21 30.3798204977 75.2345373816 32.2865376636
49405 22 25.979797501 76.5643004914 33.9514542077
49406 22 26.5293443686 76.0279427486 31.7097706873
49407 22 29.9583297427 77.5334673161 32.5149620807
49408 22 30.5743834738 76.1461771725 34.456943786
49409 23 28.3470115569 75.8333797725 33.4859997033
49410 24 25.1780670836 75.6050488952 30.3909517449
49411 20 12.9956185824 33.9650174921 11.4153930568
49412 20 15.4699358151 35.076552033 11.8989943003
49413 21 12.3005142883 34.4335588129 10.1113066475
49414 21 14.957337205 36.5907758105 11.6878747632
49415 22 12.6412894701 34.868799932 12.4135291862
49416 22 12.4958162295 32.6536817411 11.5774135044
49417 22 15.6080942361 34.8294196374 13.2950397778
49418 22 16.7730400555 35.0774874319 11.3295608516
49419 23 14.5078780222 34.1376921334 11.0952714832
49420 24 17.6911340991 33.6385632677 12.0499489786
49421 20 16.0689652858 26.5301862276 47.6374629386
49422 20 15.5271822292 29.2433108055 47.7985386333
49423 21 17.1522507792 26.4037202931 48.6537738691
49424 21 14.9252530219 29.6570377494 46.4487579865
49425 22 16.8720988016 26.6920102414 46.461385872
49426 22 15.399593816 25.3113614302 47.7357733655
49427 22 14.9684684521 30.0831119591 48.7484362402
49428 22 16.9505787712 29.4491921086 47.6697342015
49429 23 15.1744432951 27.7715541391 47.9931951493
49430 24 21.6474038464 38.3221992181 50.7039812299
49431 20 95.6069646983 96.4332025675 60.8160177536
49432 20 4.615267378 95.307356423 60.3668391905
49433 21 95.3254096222 95.9949681718 59.4358366418
49434 21 5.668498504 96.2495837588 61.1343340073
49435 22 95.9136820053 4.2962495751 60.6004083017
49436 22 94.4012354857 96.0142373896 61.4397417558
49437 22 5.1613345616 94.0252051184 60.534930377
49438 22 4.6616631646 95.7545706484 59.0429690939
49439 23 3.2685587684 95.4958393061 61.1874646661
49440 24 91.9444102129 3.4796360254 65.4133163833
49441 20 38.3354818828 25.461867117 64.6302939443
49442 20 35.9067185777 26.6255033779 65.4374496755
49443 21 38.6122664243 24.3855035756 65.7497793761
49444 21 35.4404222143 26.3459126397 66.8383966434
49445 22 39.6383990435 25.9878419317 64.2353685188
49446 22 37.739165069 24.6551790853 63.6319426732
49447 22 35.731798979 28.0372074334 65.2457864361
49448 22 35.1787911353 25.725181914 64.5495690172
49449 23 37.454990876 26.4590959094 65.4246347102
49450 24 37.6517988095 22.8848430825 62.9183268344
49451 20 74.5307432315 54.4366906345 53.3154279448
49452 20 72.8150345258 52.9561412182 51.6480793635
49453 21 74.1100943355 53.7676933243 54.6663310703
49454 21 71.7907727045 52.4713239561 52.7369772504
49455 22 73.7120820936 55.5876054701 53.2882078361
49456 22 75.9014768141 54.6357435254 53.6119494036
49457 22 72.22049497 54.0594442486 50.9122010303
49458 22 73.0015530712 51.8543348261 50.6872375891
49459 23 74.1951220977 53.3138377666 52.317637913
49460 24 76.5677614674 48.3841918994 53.7142820458
49461 20 57.2708558331 79.7407281562 9.9922864884
49462 20 59.343512768 79.6514910988 12.086139563
49463 21 57.8832615084 79.8032128043 8.5698159913
49464 21 58.8417647854 80.3470537384 13.3289012189
49465 22 56.1726974968 80.6756593803 9.9177164862
49466 22 56.8962285642 78.4080653097 10.1235510194
49467 22 59.1171462285 78.2719647663 12.3332719586
49468 22 60.7731764829 79.9766357647 11.9832269734
49469 23 58.4647054793 80.2193717854 10.9203144685
49470 24 57.6050738685 76.7793487039 9.8914411305
49471 20 93.5204638593 44.5253907198 62.3820626315
49472 20 92.5515776542 46.9389070225 63.1052195393
49473 21 92.7491339069 43.5096410287 61.6687274123
49474 21 91.5400372582 46.8774513132 64.2583793323
49475 22 93.8418669294 43.9896877563 63.6744097843
49476 22 94.567830034 44.7366973367 61.3940007485
49477 22 93.7759213053 47.1217775121 63.7457807222
49478 22 92.2283037862 48.055118558 62.2879614997
49479 23 92.4321272117 45.613259668 62.3688735066
49480 24 95.4821824818 47.5783457267 64.2573503935
49481 20 90.6325132226 73.6737307377 68.435122606
49482 20 91.6739863841 76.3278316435 68.4925560999
49483 21 91.8337525202 72.6945551445 68.3479434263
49484 21 90.4735889454 77.2980274071 68.183967995
49485 22 89.5787863351 73.1504685798 67.6347952869
49486 22 90.3937994172 73.8123568582 69.8521584353
49487 22 91.7211304898 76.4189394987 69.9032312165
49488 22 92.7459535505 76.8857035615 67.7314219957
49489 23 91.1810311513 74.9924561402 67.8408636698
49490 24 29.2710921536 33.3886246753 59.5054303217
49491 20 57.8673597267 71.8724330305 7.4480107702
49492 20 58.3065295213 74.6487905756 7.6869490713
49493 21 59.0158425251 71.6508370255 6.4353759575
49494 21 58.6301775489 75.5670716989 6.4277431023
49495 22 56.8891195324 70.9473234951 7.0144159532
49496 22 58.3757490417 71.5933099917 8.7702813346
49497 22 57.4428756952 75.5332102579 8.3984696165
49498 22 59.6016828709 74.3581621301 8.2622194093
49499 23 57.5119081357 73.3789865369 7.1450537669
49500 24 60.8444538808 67.5933571146 8.8041427757
49501 20 33.707876328 23.0353487693 27.5447199002
49502 20 35.8240293128 21.4681814127 26.6840593506
49503 21 33.6320154753 23.5706775732 29.0224631197
49504 21 36.8885132879 22.5303268904 27.0900224834
49505 22 32.3835385319 22.7859714162 27.192074506
49506 22 34.282304807 24.107035316 26.8606626673
49507 22 36.2924770938 20.2042703871 27.0887129249
49508 22 35.7497586383 21.5572313902 25.2519635985
49509 23 34.5601182873 21.7151267285 27.5292858179
49510 24 35.2569904853 14.4711168445 27.0244510188
49511 20 40.7938037939 50.7347558545 42.7171710606
49512 20 42.5924823841 52.9577313964 42.5142830341
49513 21 39.5175455026 51.2858929003 41.9035610769
49514 21 41.835651115 53.7980937894 41.3835728152
49515 22 40.2669871201 49.8580999833 43.6568728193
49516 22 41.54455497 50.0923238737 41.6986151727
49517 22 42.9398895443 54.0344690974 43.4009476738
49518 22 43.6855895662 52.2652555733 41.8814856623
49519 23 41.5192056592 52.0469334645 43.2462326918
49520 24 47.569365897 47.7441919558 41.2369958039
49521 20 3.3120172153 12.1200945439 71.5892877763
49522 20 94.2659768014 12.7511053037 72.4797875516
49523 21 3.4268523995 10.7160514056 72.3096384874
49524 21 93.6104492357 13.4377816536 71.1954848295
49525 22 4.5977847721 12.6235168906 71.7313748728
49526 22 96.4734247212 11.8395309907 70.238291111
49527 22 93.9274559309 11.3690346862 72.3793257072
49528 22 93.6782656577 13.2724031239 73.5772911087
49529 23 95.77926518 12.9710175907 72.4461131904
49530 24 88.7825747713 11.4378613389 77.8495386124
49531 20 94.1760849648 11.4028400033 67.0380107737
49532 20 91.9941734356 10.9967084986 68.7407174343
49533 21 93.7017441707 12.5767469444 66.073146784
49534 21 90.7596339363 11.8468364563 68.060588877
49535 22 93.8283971849 10.1676831406 66.4373911248
49536 22 95.5777802518 11.7012229059 67.2318254306
49537 22 91.748818298 9.6741853765 68.2563678717
49538 22 91.8359039378 11.1083390061 70.1760870826
49539 23 93.3687421539 11.5788540187 68.3766601732
49540 24 6.7425048401 8.813393871 67.6992442728
49541 20 5.6755794738 86.7834401918 6.6657366504
49542 20 5.927454342 84.6322097473 4.8432334496
49543 21 4.3105237627 86.9099061263 7.4116611681
49544 21 7.0106088796 85.0010375429 3.8317725626
49545 22 6.1059097486 88.0841123951 6.340199117
49546 22 6.5614583784 86.0794589619 7.5097190372
49547 22 6.7264627485 84.0014702532 5.8280120824
49548 22 4.9478578193 83.7686494611 4.1921396749
49549 23 5.3476847352 86.0296957392 5.3001196999
49550 24 7.8311875853 84.5990030855 7.509878055
49551 20 4.0353462365 44.3447651877 61.4103702296
49552 20 96.7418842123 47.087916071 61.662927939
49553 21 5.5743973723 44.5093018583 61.7076400075
49554 21 4.2609943897 48.1717628038 61.1708145653
49555 22 4.0356259208 43.3630640174 60.3209111033
49556 22 3.5253882575 44.0250458356 62.6580053139
49557 22 95.5441058906 47.6275477101 61.2927905849
49558 22 3.3284690115 47.0897868689 63.0985782069
49559 23 3.5746987472 45.757498182 60.886920992
49560 24 94.3995517677 50.4747149537 58.2295461899
49561 20 19.1598974889 91.4365821373 72.8334618846
49562 20 18.8479419479 89.0740450759 71.1923044732
49563 21 20.1748988609 91.3984178612 74.0658499665
49564 21 19.0020956905 88.0292980182 72.3575309123
49565 22 17.7773778798 91.2144248929 73.3045287825
49566 22 19.3793420764 92.6810368652 72.1949585794
49567 22 17.4163138953 89.2223993452 71.1551691359
49568 22 19.3313561116 88.485679153 70.0095860742
49569 23 19.6301225278 90.2380554965 71.9191094368
49570 24 20.4475676471 88.7427267772 64.716631265
49571 20 52.6179009675 9.586800409 95.99646481
49572 20 55.3009992399 8.4157277266 96.2812002424
49573 21 51.8663079323 8.317239574 95.7799199592
49574 21 55.249645839 6.9802645385 3.2991171287
49575 22 52.8430514884 10.1475720637 94.686064458
49576 22 51.7696812235 10.3325004309 3.348902801
49577 22 55.4592687378 8.2944251942 94.8776341575
49578 22 56.3818526961 9.1029933778 3.3435803812
49579 23 53.9354103513 9.0778030848 96.7566635152
49580 24 54.6467812327 16.1902865261 5.394744655
49581 20 77.5495561776 42.494359037 22.1530805045
49582 20 77.3931574776 42.5991237165 24.9361729219
49583 21 76.6946951013 41.2613161759 21.7994997114
49584 21 78.0004184588 43.9605033099 25.405369022
49585 22 78.5985125305 42.516995691 21.2145947645
49586 22 76.6774837612 43.6400356386 22.0226858946
49587 22 76.0289716874 42.775072254 24.8806102259
49588 22 77.7966885732 41.7106818188 26.0145943409
49589 23 78.0310060036 42.3381474168 23.6108061871
49590 24 78.4144260224 40.4090742166 27.5111390788
49591 20 93.394652704 70.6937368469 53.9694588722
49592 20 90.8643050758 69.3240322031 53.7135337267
49593 21 94.0597213387 69.5686390216 53.1747439467
49594 21 90.1698649149 69.3010213895 55.1952056217
49595 22 93.6993121335 70.3963735291 55.3184911998
49596 22 94.0685140886 71.8892702111 53.4453548553
49597 22 89.8179678399 69.3007407699 52.7520371731
49598 22 91.5220775989 68.0607759567 53.6113881642
49599 23 91.7954011644 70.5386477054 53.7005316816
49600 24 3.5352950675 77.4601320405 52.8768193895
49601 20 9.8247284792 90.7536473832 28.2586163586
49602 20 10.5574077481 93.4724778945 28.4851699779
49603 21 10.7911545851 90.0798795385 29.3641643464
49604 21 11.7648487407 93.6488941315 29.4803408928
49605 22 9.7914469855 89.7728816118 27.2785053665
49606 22 8.6522433445 91.0123787254 29.0262982552
49607 22 10.8594761225 94.4476312723 27.4513670876
49608 22 9.4431137804 93.8310163019 29.3131851051
49609 23 10.6196211305 92.0559097646 27.8505018083
49610 24 54.7759598241 20.0471233679 21.8947233218
49611 20 52.7107860806 20.4131449667 12.9172321526
49612 20 55.4198884431 19.7883920257 13.6802370546
49613 21 52.3512187343 19.8123382381 11.5678817893
49614 21 56.3128202556 18.9193128857 12.6335256591
49615 22 52.9979535501 21.7136300902 12.5747919606
49616 22 51.545091942 20.2630134395 13.6814530732
49617 22 55.7668279039 21.1479943611 13.4459196242
49618 22 55.8082660762 19.2191082408 14.9094447801
49619 23 53.9051034262 19.5012245561 13.415706239
49620 24 27.4048777611 35.5001942055 47.4373811089
49621 20 33.5824393323 39.7623394009 66.1673414556
49622 20 35.9873499649 39.8938564895 64.6515274999
49623 21 33.1263388172 41.1690858421 66.447680513
49624 21 36.2377562567 41.4074254878 64.3010335232
49625 22 33.1162365088 39.0361892165 67.2850496294
49626 22 32.8922084666 39.4105358657 64.9278443419
49627 22 37.336849992 39.5207258589 64.827008338
49628 22 35.3242456679 39.3473964384 63.4788178694
49629 23 35.1265958754 39.9200476594 65.982787248
49630 24 40.4428421178 27.1577453655 62.9873592749
49631 20 63.2337433514 74.6806876789 57.2908733701
49632 20 66.0026177051 74.9541983242 57.6690551549
49633 21 62.7827875303 75.1993663821 58.7263365582
49634 21 66.7756313756 74.9068671387 56.3274124788
49635 22 63.1412323978 73.2555138789 57.4906745802
49636 22 62.2752400744 75.225464012 56.4121596213
49637 22 66.6582388107 76.0213014162 58.4140068577
49638 22 66.1681833146 73.6174197225 58.1237525717
49639 23 64.6252427901 75.2981445084 57.0651616098
49640 24 62.9318901187 71.7370808063 56.6804320325
49641 20 54.6165678475 57.311826306 19.5637092042
49642 20 57.4239806369 57.920116226 19.3775648184
49643 21 53.8936915594 56.6955854951 18.4207452595
49644 21 58.017397714 57.3093942688 18.0906429793
49645 22 53.7731186381 58.1740770337 20.2813472584
49646 22 55.0461030332 56.1484706647 20.2593653837
49647 22 58.1867049192 59.1500722706 19.420499629
49648 22 57.7118028857 56.9706863185 20.4125837274
49649 23 55.9259392608 58.1038285746 18.9636507947
49650 24 56.3381695664 55.7889033185 21.4602305218
49651 20 72.6365604112 41.9652038659 63.5450441132
49652 20 73.7016991655 39.4611409475 63.3460847621
49653 21 71.7643009149 41.9623976692 64.8885575871
49654 21 72.6856688547 38.8538799663 64.3660437484
49655 22 71.6668323471 41.6272442348 62.5834540197
49656 22 73.1835817017 43.2861742258 63.3588061875
49657 22 73.0654408177 39.188659241 62.0562631864
49658 22 74.9204304231 38.720305 63.6224016041
49659 23 73.7409859203 40.9401937255 63.7142577784
49660 24 74.0113162092 44.0939847363 61.8987420076
49661 20 32.0543716507 17.7236859816 69.4890365732
49662 20 32.4070170449 19.1864628183 67.1734565378
49663 21 31.9859004495 16.4041187201 68.6213605316
49664 21 31.1043805039 20.0579739954 67.2990806132
49665 22 30.68195435 17.9990674247 69.8415884275
49666 22 32.8046551273 17.346158976 70.6424769859
49667 22 33.2919979665 20.0953899524 66.5679728146
49668 22 32.0152719757 18.0535076421 66.3919307371
49669 23 32.7758448405 18.7810609248 68.6612085258
49670 24 41.1522486614 31.2884670121 57.1806833769