ITEM: TIMESTEP
17000000
ITEM: NUMBER OF ATOMS
4000
ITEM: BOX BOUNDS pp pp pp
3.23005382 96.76994618
3.23005382 96.76994618
3.23005382 96.76994618
ITEM: ATOMS id type x y z
49081 20 22.7250769463 36.4175399299 15.4785414852
49082 20 22.9274037335 34.0531320707 14.1066854238
49083 21 23.8897421461 36.4624390782 16.4748348787
49084 21 21.7390729409 34.0859645729 13.2781090573
49085 22 21.6128876261 35.9586332179 16.2122684009
49086 22 22.5715779829 37.7454322418 15.1078428918
49087 22 23.8065851818 33.2574817463 13.3719295693
49088 22 22.5979562326 33.3788965265 15.337015628
49089 23 23.2760269123 35.5755873587 14.3042416765
49090 24 17.5485793031 35.0709396394 20.0923031359
49091 20 43.7638824561 53.0321891507 57.0998649099
49092 20 43.8988605208 51.1648522795 54.9838054649
49093 21 42.4362707639 52.289856565 57.5353866487
49094 21 42.5228887042 51.1746739682 54.3758897045
49095 22 43.5732481555 54.4299557623 57.2454129824
49096 22 44.7614854081 52.6364218661 58.0491077376
49097 22 44.8168610244 51.123601187 53.8764802192
49098 22 43.9433855096 49.9642677611 55.7601865715
49099 23 43.9191586774 52.6845949107 55.602478313
49100 24 44.3726400756 54.489260054 54.4002100765
49101 20 8.24944186 22.1524257253 81.8578165399
49102 20 8.6993874502 22.4650360455 84.6828148291
49103 21 9.6105221257 21.7991255518 81.1291407785
49104 21 10.1865875528 22.6378977666 85.0628674118
49105 22 7.5910519736 23.0559275456 80.9445865708
49106 22 7.578536336 20.926491896 82.1573312753
49107 22 8.0653553518 23.2936124121 85.6180266729
49108 22 8.5140287995 21.0655857159 84.8721395712
49109 23 8.5903760597 22.9641649112 83.1774773414
49110 24 9.9006361019 29.3231938736 80.5527479617
49111 20 88.0351910314 88.1015108151 29.9298936154
49112 20 88.6558282172 88.1912155718 32.6599489139
49113 21 87.0912799776 86.9285205649 29.8413113374
49114 21 88.0080644626 86.8002773725 32.9595571891
49115 22 89.2803940785 87.5659949313 29.4869822251
49116 22 87.4692746826 89.0864858816 29.041264638
49117 22 90.1371259526 87.9872050666 32.5080401287
49118 22 88.2271348905 88.9704964151 33.8055319756
49119 23 87.8524140817 88.5952143669 31.3901448751
49120 24 90.8042524649 86.6755886959 29.3600485912
49121 20 46.6589421247 56.7909026454 55.2173745761
49122 20 47.2240166144 56.4764215273 57.9573451032
49123 21 47.9302428017 55.9708384091 54.7654833562
49124 21 48.7987607023 56.3682894117 57.9015953273
49125 22 46.6089918221 57.8525804237 54.2801048547
49126 22 45.6396379176 55.7954511109 55.1067168835
49127 22 46.9561183627 57.2282016422 59.1191105663
49128 22 46.6962645417 55.0885701444 57.8987891305
49129 23 46.9325463098 57.3049043539 56.6797772533
49130 24 46.5492198309 55.0704234052 48.6777200816
49131 20 82.7199737278 48.3718446336 20.5144486702
49132 20 84.5947937904 48.1127391317 22.4969331488
49133 21 83.4486494893 49.4530722494 19.606456935
49134 21 83.8164483461 47.3245719987 23.7062168773
49135 22 81.9756768043 49.2234318136 21.3549981429
49136 22 81.8750278801 47.6470040077 19.6503271445
49137 22 85.9562669237 47.718000786 22.5852348072
49138 22 84.3189446478 49.4526980898 22.8135656845
49139 23 83.9421659614 47.6146392049 21.1222708907
49140 24 78.6079600597 44.0596555958 17.0971557826
49141 20 24.4637964655 55.088850764 81.96201998
49142 20 24.5323612066 57.8403266978 81.9821310569
49143 21 23.8440946786 54.9890436989 83.3755948334
49144 21 23.6779678298 58.2226242379 83.2336948167
49145 22 25.3394233979 53.9695524121 81.8811079731
49146 22 23.3551616612 54.9995201668 81.1018271299
49147 22 25.501808651 58.9085522686 82.0374131333
49148 22 23.7676725866 57.9673538716 80.8259779873
49149 23 25.2212825138 56.4174913951 82.1118708876
49150 24 23.8015340276 58.2977367714 79.1217746884
49151 20 37.9426143349 34.8268940603 53.8325164698
49152 20 37.1246079762 34.5999662814 51.0331481111
49153 21 37.2333013311 33.8076833931 54.7793272602
49154 21 35.9446022341 33.6254676828 51.1520373143
49155 22 37.2278760174 36.0540439081 54.0263311267
49156 22 39.2724709846 34.8118341376 54.3278101998
49157 22 36.5107992025 35.9096183143 50.8962057087
49158 22 37.8324243417 34.1603287873 49.848745994
49159 23 37.9531843427 34.1912904917 52.3283950006
49160 24 40.81456965 34.4589081237 53.4249631587
49161 20 28.7826268356 54.6582866395 34.2067245739
49162 20 31.0195398215 55.0046648609 35.9896884622
49163 21 27.4534249652 54.0381171532 34.7844269491
49164 21 30.9910101544 53.9949017229 37.1820414701
49165 22 29.3310512246 53.4759424001 33.5327696495
49166 22 28.2865847865 55.775433574 33.3610304071
49167 22 31.8725301 54.4863603173 34.9907759517
49168 22 31.5062278815 56.2587541978 36.5418544468
49169 23 29.4918462995 55.1820164968 35.5366747635
49170 24 85.93344319 37.1466833908 23.4555299657
49171 20 62.5999170408 82.4895849729 28.8397797099
49172 20 62.092182505 84.7083512197 30.4166752153
49173 21 63.0678971222 83.0931978983 27.5725947881
49174 21 61.3770700279 84.163200727 31.69003377
49175 22 61.1912998017 82.3188746694 28.6473681513
49176 22 63.3114750019 81.2556067129 28.9340679214
49177 22 62.8706214893 85.8136185878 30.8712790922
49178 22 61.0117032084 85.1140337329 29.5412353627
49179 23 63.041144713 83.5436860199 29.8919164191
49180 24 59.2982394601 85.824749835 29.3274967086
49181 20 3.6659562662 15.5553377368 78.0898425959
49182 20 5.5535005603 16.5967173585 76.379559204
49183 21 95.8068594482 15.812385361 77.4995123352
49184 21 4.7126424059 17.7207862449 75.686054442
49185 22 3.9535315697 16.5881116884 79.003914424
49186 22 3.4888824438 14.2407280896 78.6783020587
49187 22 6.2816057285 17.205381438 77.4264576793
49188 22 6.3997840285 16.1433295002 75.2806525485
49189 23 4.5741565953 15.462172004 76.8741981548
49190 24 93.8471051634 19.1403476514 82.8751564092
49191 20 10.6647073586 85.5863166494 33.4348333822
49192 20 10.9452241418 82.8461590426 34.1555582528
49193 21 10.5337515093 85.8116542501 31.913313493
49194 21 10.1264320481 83.1436159003 35.4353710601
49195 22 11.2908072742 86.7445275966 33.9499575694
49196 22 9.2746203723 85.5582546817 33.8131087069
49197 22 10.1079579193 82.0900760927 33.2667421956
49198 22 12.0083330805 82.0781029864 34.6964059104
49199 23 11.5192784613 84.285737986 33.717417397
49200 24 3.3778038216 85.597073737 36.3505653669
49201 20 46.2794507814 68.3540235193 75.9257036463
49202 20 46.6701669118 70.4649382702 77.8502869316
49203 21 45.4870743532 67.4094576862 76.9126430505
49204 21 46.6613741619 71.6064055766 76.8402431739
49205 22 47.0143001757 67.4405129305 75.1285566836
49206 22 45.3023330658 69.0476218211 75.1675628187
49207 22 45.3303950335 70.3866453803 78.3362266724
49208 22 47.6056593752 70.8549996213 78.8303043838
49209 23 47.0831455365 69.1468676469 76.9943033766
49210 24 47.3097926957 71.1297262852 80.5641598286
49211 20 39.4431812881 69.3073821022 76.8115264269
49212 20 41.7042275663 70.2621437835 75.4802666788
49213 21 38.3525996831 70.3940350318 77.0221782645
49214 21 41.5178961007 71.7911468641 75.42713602
49215 22 40.1519330525 69.368370112 78.0346540594
49216 22 38.6996326838 68.1353272509 76.5483051698
49217 22 42.5627366983 69.9611324099 76.5786120949
49218 22 42.291003311 70.0078088162 74.2250548633
49219 23 40.2430409077 69.718583469 75.4909302266
49220 24 40.090664423 69.0762450282 79.8568111626
49221 20 86.7350800675 69.8423367466 88.2609963315
49222 20 84.7679361311 71.5534619976 87.036184981
49223 21 86.4632531403 69.5744384949 89.7316305192
49224 21 83.37849457 71.7233304421 87.8555944381
49225 22 88.1146064 69.9082823707 88.1294792429
49226 22 86.1049953525 68.7544677985 87.5899411438
49227 22 85.0024406413 72.8116670897 86.436594271
49228 22 84.5122916053 70.5205009662 86.0373660104
49229 23 85.9252116794 71.1600332103 88.0234985448
49230 24 86.1486784823 72.9245697398 85.1003769086
49231 20 94.1617733613 88.9553429525 23.8249190007
49232 20 96.0449184743 87.0419844543 24.6979268161
49233 21 92.9886895712 88.0843930148 23.3020310024
49234 21 95.0599434077 85.820447 24.6694906888
49235 22 94.2235096902 89.9756760984 22.8627676679
49236 22 93.7766696244 89.378143266 25.1035157893
49237 22 3.7468018598 86.459137385 24.3324664566
49238 22 96.0091862354 87.6226801061 25.9963540619
49239 23 95.4271810251 88.0239662443 23.5964945835
49240 24 15.468252097 58.3292597152 90.5169914555
49241 20 62.4127437161 77.3431136352 29.2101976836
49242 20 59.9330011697 78.1976940918 28.1589963733
49243 21 63.0414253327 76.3353148349 28.1372951183
49244 21 60.1985609241 77.9397110687 26.6021184048
49245 22 62.8269383595 76.8694276203 30.4999257195
49246 22 62.9407764085 78.6721284258 29.0167571862
49247 22 58.5399115528 77.9801203022 28.251320247
49248 22 60.3378418238 79.5518711135 28.3394348256
49249 23 60.7941294188 77.2152446023 29.0301333908
49250 24 59.8546147399 81.1618797408 28.8906654113
49251 20 51.8130837336 57.2376491713 73.8893401896
49252 20 50.690885645 59.8905340586 74.0712752802
49253 21 52.0757437513 56.6056001187 75.294122293
49254 21 50.3619993834 60.255994418 75.6237568737
49255 22 52.83294918 56.6827705299 73.044300802
49256 22 50.5025898416 56.744319779 73.6101236109
49257 22 51.1726160906 61.0801744096 73.443154903
49258 22 49.4406314437 59.4583797559 73.5330467396
49259 23 51.8964277777 58.8179121129 74.1334793086
49260 24 48.2134815958 60.1850911796 72.428153531
49261 20 31.0029832606 84.4768399861 58.0393795888
49262 20 29.8298994705 86.6547292999 56.5956848901
49263 21 29.8202648616 84.1329873418 58.9760880708
49264 21 28.2732085819 86.8668777758 56.8125103606
49265 22 31.6763769457 85.4168223645 58.8477513385
49266 22 31.6225915076 83.2182607344 57.8074006557
49267 22 30.3981543166 87.5060358603 57.5548429463
49268 22 29.9877012689 87.0753781959 55.2424432673
49269 23 30.2260409147 85.0987867304 56.7923992837
49270 24 24.1118058505 92.5139746175 63.8969411882
49271 20 4.0131024501 31.0254328348 84.0725605713
49272 20 95.1568507362 29.6628372228 83.3218093953
49273 21 4.4982489726 30.182264245 85.3208504349
49274 21 94.285433099 29.3214166156 84.5110755867
49275 22 4.4302735329 32.404304388 84.3101518979
49276 22 4.6863764041 30.4089114042 82.9458725679
49277 22 94.2362311156 29.9818082557 82.2368401838
49278 22 95.9708348795 28.4759095286 83.0468021117
49279 23 95.9767278928 30.8445266829 83.9941741415
49280 24 6.368925218 29.7685373011 82.3776177218
49281 20 25.4147230112 79.8940400397 25.2543020958
49282 20 27.0462458138 81.7785882511 26.704544587
49283 21 26.5340213632 79.7601844538 24.156611459
49284 21 27.4907473823 82.949240004 25.7784061127
49285 22 24.1200373611 79.921634308 24.6098122375
49286 22 25.7231240363 78.8159927803 26.1116887492
49287 22 26.6927585605 82.3868781711 27.9781837614
49288 22 28.120177318 80.8611489868 26.7590783442
49289 23 25.8317238514 81.2812366434 25.8512736889
49290 24 25.8513672288 77.4396468041 27.3483796661
49291 20 22.8302157853 24.5555590999 56.9240099123
49292 20 25.1575818471 23.1249599861 57.3035947954
49293 21 22.7709114936 25.2155765804 58.3374912257
49294 21 24.9544132009 21.8005286502 56.5077573912
49295 22 21.8976230585 23.5025805316 57.0954685349
49296 22 22.3910459907 25.6795344465 56.1408939334
49297 22 26.515968164 23.4088535595 57.1143635932
49298 22 24.7865090941 22.8317124236 58.6702126228
49299 23 24.315629276 24.1682104056 56.5772575313
49300 24 21.6189677192 22.1333435872 55.8033084619
49301 20 57.0555270009 35.9081216761 74.2162621134
49302 20 57.6748546282 35.499726506 71.453187233
49303 21 57.2263308444 37.4527459186 74.125341338
49304 21 58.8104289215 36.3806852123 70.9249674608
49305 22 57.541186122 35.6576218443 75.4847565937
49306 22 55.6599118069 35.6377913871 74.100179107
49307 22 57.8642729103 34.2910975568 70.7695041597
49308 22 56.5110312875 36.2154002225 71.121214155
49309 23 57.9814783954 35.2888875886 73.0029561696
49310 24 57.0344805251 32.4825037381 70.9546196067
49311 20 67.9612495113 86.5494033811 90.2418906321
49312 20 69.5214949158 85.3683687002 92.4064037413
49313 21 67.0864644379 85.3099998074 89.8950447112
49314 21 70.3060139931 83.9966061787 92.2413993711
49315 22 68.3152980038 87.0881931611 88.9559977318
49316 22 67.1642896284 87.4505667041 91.0152784621
49317 22 70.5222782242 86.1774887691 93.0960733676
49318 22 68.2989285227 85.0630544915 93.1281575507
49319 23 69.2445232946 85.8920050176 90.967573117
49320 24 68.7978703085 93.5187801412 89.5833697898
49321 20 87.3190496155 93.1297477289 31.5835853725
49322 20 85.1562202243 91.3598794255 32.1596975695
49323 21 88.4376931882 93.3578915264 32.6497530656
49324 21 83.7467611263 91.8173830391 32.4533192916
49325 22 87.2241066247 94.3463275689 30.8987798205
49326 22 87.8279066299 92.0847200514 30.726292259
49327 22 85.1348931289 90.937172652 30.7692270696
49328 22 85.37725499 90.3608733751 33.1846141701
49329 23 85.9818968542 92.6781371286 32.3168445887
49330 24 75.7828682306 24.7546119908 30.9124366448
49331 20 94.5836382758 53.8685293283 13.1328416045
49332 20 93.7002475324 52.0055888321 15.1301053861
49333 21 94.558288965 55.3352348405 13.8603948872
49334 21 93.83270002 50.5195205621 14.5159224529
49335 22 94.0370846848 54.0701077963 11.8347604562
49336 22 95.9646612466 53.4530251264 13.2040254626
49337 22 94.8091629563 52.1966908322 16.0110640924
49338 22 92.4098647173 51.7932532764 15.7518650507
49339 23 93.6025918848 52.958105556 13.9445807904
49340 24 27.7979323888 43.1719620173 36.1495481382
49341 20 75.985007938 47.9306169613 18.2373135306
49342 20 77.7548762414 46.0357793618 19.2951561733
49343 21 74.6983667186 47.2621808905 18.9473748535
49344 21 76.9372440422 45.6146627664 20.611075379
49345 22 75.8953967211 47.5135225813 16.8796755328
49346 22 75.7682760074 49.3085531157 18.3531159173
49347 22 77.4402080435 45.0547329707 18.282960998
49348 22 79.1304738984 45.9718916153 19.6858723036
49349 23 77.311964851 47.5126807222 19.0071468447
49350 24 81.3028443586 43.5182466988 15.8260421853
49351 20 65.810673846 63.6453188778 18.7208212342
49352 20 66.7878851015 61.1254477175 19.335378327
49353 21 65.7673648759 63.0660263244 17.2474743896
49354 21 67.6519130872 60.9406128902 20.6628029394
49355 22 67.0034945534 64.3691305649 18.740932311
49356 22 64.6119601254 64.3795134929 18.7534666566
49357 22 66.0515390688 59.9126094732 19.3446387763
49358 22 67.6924158606 61.2948484626 18.2345073338
49359 23 65.8465931647 62.3283707332 19.61085331
49360 24 59.0462429901 56.6488155489 22.1047203802
49361 20 47.518947895 5.2056163466 21.3403123798
49362 20 47.3352355464 7.6469794753 19.8811835989
49363 21 46.1644902537 4.4090025613 21.1221773508
49364 21 48.0505351033 8.8395756869 20.5489648904
49365 22 47.8815085178 5.0055719328 22.7137586193
49366 22 48.3761474686 4.6573696835 20.3199792339
49367 22 48.2595967627 7.1394881433 18.9041594232
49368 22 46.123332701 8.2360843634 19.400482092
49369 23 46.9247824988 6.686081577 20.9660592705
49370 24 50.6226015235 7.2119534979 13.4350689967
49371 20 4.2847161064 24.7457257011 78.0504623012
49372 20 5.1855894557 26.298674994 80.2437856973
49373 21 4.2307903584 25.845100056 76.9798982332
49374 21 5.8654748093 27.3968333303 79.3096027923
49375 22 96.7510511217 23.8834749733 77.7468318106
49376 22 5.5502360181 24.1260239142 78.0783371891
49377 22 4.6016479696 26.9358687408 81.4269717957
49378 22 6.2179237697 25.3422295946 80.6331922692
49379 23 4.0735142542 25.5949743838 79.3400032573
49380 24 3.6418575837 27.1189263101 82.9078018317
49381 20 4.9620478209 34.0146871749 57.7128318245
49382 20 7.3564819856 34.382205412 59.207973464
49383 21 5.3101939463 34.0155290339 56.2061847783
49384 21 8.1887905938 34.2358154804 58.0123465599
49385 22 3.7259527531 34.717639466 57.6595140859
49386 22 4.916755805 32.630296768 58.1117794654
49387 22 7.9996622854 35.3480983405 59.9798646558
49388 22 7.2887216875 33.0589900947 59.6739892077
49389 23 5.9676390797 34.8873208307 58.5241968509
49390 24 95.3345765317 38.6743769128 60.2679675242
49391 20 24.0104086072 24.54676635 51.9351532931
49392 20 23.0605110003 22.1925543391 53.2967199663
49393 21 22.8684736013 25.3545768604 51.3231217774
49394 21 24.296547138 21.4530279501 53.9525281517
49395 22 25.1832117776 24.8143839821 51.1533468728
49396 22 24.1080642548 25.1361612118 53.2001867974
49397 22 22.3854335971 22.9655680096 54.2616774959
49398 22 22.2045274453 21.1392951511 52.8394034326
49399 23 23.4771376809 23.0329167321 52.0019407763
49400 24 20.752694776 19.9509643586 53.0636185546
49401 20 22.8046793947 77.1158116967 27.6420013882
49402 20 20.8025515386 77.2443355089 25.7631591103
49403 21 22.3757054483 77.0084279003 29.0732552812
49404 21 19.5472461832 77.8407458625 26.4358980161
49405 22 23.0887600478 78.4909416543 27.5953249819
49406 22 23.9727120306 76.2864870111 27.5239540441
49407 22 21.4507829927 78.2967528378 25.0738636435
49408 22 20.2288713788 76.2817164766 24.8607797687
49409 23 21.6348695009 76.4675802427 26.7884498704
49410 24 22.8260064902 78.7607107039 23.9421244858
49411 20 17.1592662711 32.0459530604 18.9048142024
49412 20 18.8022009405 32.8751842062 16.8817334105
49413 21 15.7727244467 31.9685020295 18.2865155139
49414 21 17.6709294823 33.2386802279 15.7500877927
49415 22 17.2199736612 33.3069643493 19.5158167793
49416 22 17.172361856 31.045169752 19.8998915774
49417 22 19.1660711218 34.1112203438 17.4393247088
49418 22 19.8012069909 32.3298466337 16.0554020014
49419 23 18.1608914385 31.7430708889 17.7780326591
49420 24 21.621680376 32.2694198633 16.4133791694
49421 20 22.4171436207 17.8482811182 55.1475938164
49422 20 22.7577223687 19.5866264778 57.4036824803
49423 21 23.8338052904 17.5448377074 54.5577312552
49424 21 21.6205578973 19.5789562067 58.4914578885
49425 22 21.915395638 18.9606575182 54.3616716408
49426 22 21.6678890829 16.6732329904 54.9905403372
49427 22 23.9362314726 19.737693404 58.1722997758
49428 22 22.4939398723 20.7383831725 56.6429225357
49429 23 22.7043110902 18.1689358692 56.6484413894
49430 24 24.9252287545 23.2057784531 60.4631852796
49431 20 14.959862782 5.8183868275 65.6926265019
49432 20 14.1896553084 3.8475106495 63.8229511334
49433 21 15.2514266265 6.9643253408 64.6294520853
49434 21 13.8149344996 96.0313551899 64.5266517436
49435 22 16.2335019564 5.2980337603 65.8690427388
49436 22 14.3009677803 6.3202938279 66.8141698113
49437 22 13.1715671199 3.8700313139 62.7985957721
49438 22 15.5393424152 3.706403851 63.4411212928
49439 23 13.8907018124 4.9432837185 64.9325213365
49440 24 7.8080738779 5.4780606371 62.9832435197
49441 20 45.9228767117 33.7136758013 70.5991680157
49442 20 46.4354753218 31.5384056045 68.9133920756
49443 21 46.4342593032 33.695716142 72.0621319322
49444 21 47.7514880674 31.0639712704 69.5206530568
49445 22 44.7284658261 34.4977271791 70.7159058014
49446 22 46.9881090059 34.3247719181 69.9356895592
49447 22 45.7481441928 30.4126529999 68.3696446813
49448 22 46.8241335746 32.4032754492 67.8995131823
49449 23 45.692300877 32.2147925661 70.0847921476
49450 24 48.1321954293 35.7958738052 69.6130704704
49451 20 76.8290183868 58.7761933209 52.0285061057
49452 20 74.5275628751 59.8996074281 53.2715577353
49453 21 76.7301467205 57.1549599065 52.2153052707
49454 21 74.6569285463 61.2268449608 54.1540130798
49455 22 78.2193953468 59.1815016745 52.1182108625
49456 22 76.2591733625 59.0526972427 50.7735749098
49457 22 74.0018686801 60.3622557357 51.971727391
49458 22 73.5876740367 59.0332409451 53.9605725824
49459 23 76.0038094564 59.3848574005 53.2226363716
49460 24 75.6872704606 63.6195018675 46.5639991339
49461 20 50.8426073504 72.0213485391 11.1386646392
49462 20 51.3940250158 73.5557769334 13.3382552081
49463 21 49.4751476639 71.9191094368 11.8830551026
49464 21 50.1919438591 74.5943503583 13.5025112591
49465 22 51.4437882386 70.7724974363 11.335304201
49466 22 50.4208359757 72.3468673646 9.825822896
49467 22 51.0650452144 72.4284341507 14.0624410547
49468 22 52.5856297046 74.1951220977 13.8187696351
49469 23 51.5001927936 73.2860078839 11.7922839911
49470 24 52.5187486816 69.2802555334 11.9028107279
49471 20 4.9818315082 40.1382762283 60.4256757827
49472 20 95.9846787836 41.4240755886 60.1303703426
49473 21 5.5428370126 40.3086123722 61.8880784599
49474 21 96.4863332263 42.7286764674 60.9525859964
49475 22 5.5947048829 41.2149203893 59.6362926311
49476 22 5.4200846118 38.8025265654 60.1103528056
49477 22 96.19635956 41.686174367 58.7112766356
49478 22 94.5866315524 41.1954640917 60.472352189
49479 23 3.3874730402 40.2369608147 60.5982568841
49480 24 96.5621005391 41.0311145008 57.0156790068
49481 20 84.9463167059 70.9624769576 82.9589681528
49482 20 83.3085267305 73.1057565113 83.4362086836
49483 21 85.5166294296 71.0368411721 81.5086321218
49484 21 82.7866676711 72.9855577496 84.883644978
49485 22 84.8096549231 69.5729418566 83.1684039718
49486 22 85.9547702854 71.591345654 83.7451709481
49487 22 84.5093918687 73.8870952322 83.5720286073
49488 22 82.2294505323 73.7644644333 82.7196931081
49489 23 83.5666968335 71.7217402639 82.9123852864
49490 24 43.5948558706 29.4745414194 57.7227470531
49491 20 53.2308678821 63.9062016376 12.1228352627
49492 20 53.8964042162 66.6215711729 11.4233907176
49493 21 54.5148899845 63.1872540249 11.8159308759
49494 21 55.1197189285 66.5994022184 10.3913463772
49495 22 52.2929433814 63.0258041707 11.6108820778
49496 22 53.2139371616 64.1754094478 13.5126135675
49497 22 53.1290964792 67.7243129639 11.0360607313
49498 22 54.5024491788 66.7548655195 12.7242593546
49499 23 53.2103826457 65.2287621756 11.2399776967
49500 24 53.64113385 63.3915451498 15.2952032962
49501 20 26.5862166231 15.7997574755 25.2725423748
49502 20 26.0037437134 14.0985474532 23.1672400175
49503 21 25.9186224114 17.1835866431 24.9522617834
49504 21 25.2267078276 14.9392840057 22.1052816195
49505 22 27.797745309 16.1524028697 26.0058951309
49506 22 25.6125598836 15.1261767107 26.0647317232
49507 22 26.8063159899 13.1573490563 22.4525952399
49508 22 24.9709697619 13.5306667667 23.99057815
49509 23 26.8859184383 15.1425461918 23.8709406277
49510 24 18.3758461111 7.0425901688 22.9713674829
49511 20 35.1158387878 48.7026016929 41.6215383014
49512 20 36.8558678655 50.4131657045 40.3134764466
49513 21 34.1685602978 49.4547559674 42.5916405251
49514 21 35.9330968273 51.6013094173 40.4577149607
49515 22 35.255587387 47.3624556551 42.0658527901
49516 22 34.2887590595 48.7296347218 40.4217021021
49517 22 38.1900273502 50.8721659563 40.4274080355
49518 22 36.4717930674 49.8855071717 39.0535876364
49519 23 36.4709512084 49.5323005382 41.6196675036
49520 24 34.5808841434 41.578416411 38.0932135616
49521 20 8.9747408314 13.2261008772 72.9795711965
49522 20 6.2139202623 13.2469602731 73.5124679633
49523 21 9.6131786587 12.7228562563 74.2566713469
49524 21 5.7561453831 13.1268550514 72.0279898715
49525 22 9.9712306587 14.1208099476 72.5895098453
49526 22 8.7901772697 12.0804616915 72.1476273938
49527 22 6.2199722934 11.9257186476 74.0867093625
49528 22 5.1865155006 14.0408333396 74.1182323062
49529 23 7.6712437233 13.9296144076 73.3746837018
49530 24 96.5981133977 12.7585884951 79.6562616334
49531 20 6.62442008 9.4720550231 69.7767652821
49532 20 6.5654993018 7.9576909357 72.1745668828
49533 21 5.1385014739 9.2679603319 69.2935381981
49534 21 5.2196099145 7.0015916339 72.1282646361
49535 22 7.3412630451 9.4643566899 68.534181352
49536 22 6.7026849079 10.6834433991 70.5440730191
49537 22 7.5296898042 7.0983960685 72.7026931151
49538 22 6.3061880122 9.1596317826 72.9665691514
49539 23 6.9093800081 8.1939259339 70.6795187832
49540 24 11.6814859886 13.5876325611 72.1002026684
49541 20 86.0943318048 90.6283974673 22.4181725595
49542 20 84.318757568 91.9856613054 20.7708415151
49543 21 85.2663166776 90.3828552498 23.7383010604
49544 21 85.1021541666 92.5472748192 19.5609030074
49545 22 86.8437734224 91.8372134963 22.6213412057
49546 22 86.8561206882 89.4317416243 22.2099527591
49547 22 83.1167699512 91.624503781 20.1792016959
49548 22 84.2580501779 93.0713788361 21.7481463105
49549 23 85.0989738102 90.706877437 21.2208619373
49550 24 87.5323205701 88.6752845148 20.6471817774
49551 20 7.2410537584 38.3455841912 57.3775848503
49552 20 4.4118087581 38.2734649342 57.3398882737
49553 21 7.4458687067 38.1123892395 55.7773979117
49554 21 3.9383107584 37.5373059813 56.0675586578
49555 22 8.3205789481 37.6762127214 58.0155269162
49556 22 7.2048164041 39.7130438776 57.7331299812
49557 22 3.5101683817 37.8296181449 58.2919372981
49558 22 4.2942197594 39.6726346441 57.0185787434
49559 23 5.8898606593 37.6538566872 57.5984325362
49560 24 95.5252108323 33.9113255939 57.4084530148
49561 20 24.8897771353 94.9599492628 62.2896452178
49562 20 27.3575465755 93.8077248687 63.2826647151
49563 21 24.4532264577 96.3175872605 62.8179585299
49564 21 28.3493500542 94.4907531627 64.2845705022
49565 22 24.07747671 94.0427906182 62.9780052857
49566 22 24.6056964822 94.9977393793 60.9079674678
49567 22 26.5911742374 92.9226504072 64.0785021193
49568 22 28.28349797 93.1571549173 62.4121824768
49569 23 26.4789263666 94.907660463 62.5269559247
49570 24 30.3539099475 89.6393066455 57.7936502915
49571 20 64.0914106244 89.9197392428 91.2540858073
49572 20 64.2327494018 88.3274096551 93.6408497007
49573 21 62.8328313727 89.9318058889 90.3490873487
49574 21 63.0136439847 87.4137119866 94.1279119203
49575 22 65.2117379152 89.8455621081 90.3649891304
49576 22 64.1120829407 91.1628844122 91.9373011811
49577 22 65.4565318135 87.5601019181 93.6716243253
49578 22 64.3190867224 89.5253750566 94.4882275856
49579 23 63.8959122494 88.6797744296 92.1500108963
49580 24 66.8202499043 5.7969942541 87.0401136565
49581 20 85.5090526983 52.3170766736 25.9482745572
49582 20 88.0690524724 52.4291374647 27.0197740242
49583 21 84.6584944571 53.6430981877 25.9508001343
49584 21 87.6579446455 52.7798185211 28.3810600777
49585 22 84.9341565199 51.6525692783 27.0922674408
49586 22 85.2509761353 51.7447060723 24.6981138959
49587 22 88.4043929865 51.0352059887 27.0571899812
49588 22 89.2419491827 53.207482909 26.8399903511
49589 23 86.9952145081 52.8231274913 26.0289059445
49590 24 84.3732913253 50.0682841214 24.6150504714
49591 20 82.1463871079 69.6765840574 68.4609396163
49592 20 79.3513215843 69.5301941258 68.5252950622
49593 21 82.8438205453 68.3165140224 68.6418457681
49594 21 78.680640556 70.3847745824 67.472222954
49595 22 82.1559281769 70.3105039079 69.7519772106
49596 22 82.9224875948 70.2736491903 67.4486509011
49597 22 78.4676502211 68.4067800186 68.6839387196
49598 22 79.2628328461 70.3942221115 69.6641432517
49599 23 80.7870653921 69.2590219779 67.9586303943
49600 24 81.267673359 75.3827045711 64.270820138
49601 20 6.0868837345 87.0823001479 36.8124653554
49602 20 8.5956236476 86.4674624354 38.0054731426
49603 21 6.054313144 88.6776230121 36.7656954092
49604 21 9.2206385004 87.9403415805 38.1594398054
49605 22 4.7031668148 86.7083276583 37.0557626154
49606 22 6.6302476153 86.6382662789 35.5817609916
49607 22 9.0484876825 85.7662874023 39.1568556776
49608 22 9.1811178959 86.0302569785 36.7592411566
49609 23 7.0303738588 86.7745539021 37.9999542889
49610 24 59.7430216483 28.1492682245 11.3616356807
49611 20 60.1009052765 19.7037384231 8.5523240315
49612 20 60.8712998299 22.3756119085 8.9192061973
49613 21 61.3879206555 18.7859249992 8.6167168934
49614 21 62.3603613764 22.2709407689 8.9414499837
49615 22 60.0302826577 20.0238319347 7.151854117
49616 22 59.0938547953 18.8757232959 9.1090360548
49617 22 60.4983562791 22.7522035151 7.6044936562
49618 22 60.6315570858 23.3834107087 9.8522666236
49619 23 60.4066871846 20.9549280233 9.4396434504
49620 24 26.6038956628 29.775552793 56.9575907336
49621 20 44.5123886748 26.3071871242 67.9908081173
49622 20 43.9219648742 24.417307139 65.8658623825
49623 21 45.9563639932 25.8636209547 68.5469027773
49624 21 45.0672673163 23.3577807782 65.7483762777
49625 22 43.505899433 25.5844979159 68.7743917955
49626 22 44.3982700061 27.7357283604 68.1328952137
49627 22 42.8993867709 23.8609318592 66.6371923349
49628 22 43.6107576523 24.7967984823 64.4735210847
49629 23 44.5117338955 25.8488416517 66.51979977
49630 24 43.7193574674 35.2871103307 69.2018691036
49631 20 55.5510313722 77.4012019083 71.7323102718
49632 20 53.2802569453 75.8139234749 71.3228861629
49633 21 56.506260753 76.2814358569 72.2557595094
49634 21 51.8751942221 75.9843531588 71.9380980349
49635 22 56.0085349857 78.5282640714 72.5578933617
49636 22 55.7517679812 77.4354375089 70.3742045746
49637 22 53.0895291047 76.2243765226 70.0034124413
49638 22 53.5564802474 74.4347713019 71.4798461023
49639 23 54.1754337151 76.7612955047 72.2195595711
49640 24 52.5952643135 76.1342040663 67.9560112773
49641 20 50.3226190887 40.8368321444 7.4257015059
49642 20 52.6630807355 40.2193753149 9.0354949914
49643 21 50.3299152003 39.6126755731 6.3275338156
49644 21 53.9419581438 39.8461511444 8.2916189975
49645 22 49.8863490308 42.0149670887 6.6853613198
49646 22 49.5218240702 40.409635456 8.4973412827
49647 22 53.1055244263 41.0970601249 10.047390839
49648 22 52.0622740068 38.9758559859 9.4948319869
49649 23 51.826647018 40.8587204792 7.8262860949
49650 24 52.422776752 41.8271389848 11.8424962053
49651 20 72.909603357 47.0300148777 56.1813031669
49652 20 72.8013777015 46.634341133 53.3085995326
49653 21 71.8851544559 46.0462558297 56.7665822734
49654 21 72.2476215388 45.2648235689 52.7789766621
49655 22 72.1972035368 48.2589419835 56.1249921517
49656 22 73.8956073624 47.0085007024 57.2070616265
49657 22 71.6398928581 47.4590823639 53.100566812
49658 22 74.0205766586 46.8313361463 52.5624318113
49659 23 73.2216524379 46.3201406345 54.8300258819
49660 24 71.1258911496 49.8328442123 56.8895872319
49661 20 44.39490257 22.145690853 3.5437286242
49662 20 46.2214560481 22.3487659593 5.6955221789
49663 21 45.0638063403 21.4983947979 95.6779614766
49664 21 46.6501493748 23.6832060638 6.3350824849
49665 22 43.4575393086 23.1403005285 96.6854796572
49666 22 43.875194928 21.016009573 4.2740432046
49667 22 45.3165511294 21.8068893629 6.6636413568
49668 22 47.4999592969 21.6553547373 5.6604073033
49669 23 45.7098863768 22.6910284255 4.2673176864
49670 24 41.1366274994 39.0803400457 63.0339421413
49671 20 54.6531419454 84.949684142 72.5044820832