ITEM: TIMESTEP
18750000
ITEM: NUMBER OF ATOMS
4000
ITEM: BOX BOUNDS pp pp pp
3.23005382 96.76994618
3.23005382 96.76994618
3.23005382 96.76994618
ITEM: ATOMS id type x y z
49081 20 27.0572835211 36.464309876 43.3518392303
49082 20 26.5121330284 39.2315940516 43.2644729708
49083 21 28.5511156021 36.0923017241 43.2091908944
49084 21 27.612629862 39.4536577561 44.4268932132
49085 22 26.3728521287 35.5158153675 42.5366390684
49086 22 26.8611303668 36.4836726338 44.7739262138
49087 22 26.7707708308 40.3284428294 42.3574166346
49088 22 25.3012591218 39.2134473125 43.9565746344
49089 23 26.8498120398 37.8372884161 42.6404683489
49090 24 26.1999904076 40.8005386662 40.5880160307
49091 20 67.5296564479 41.9477119061 45.737480645
49092 20 66.192223067 39.5384048985 45.4808071804
49093 21 66.5085749829 42.6226022294 46.7016898555
49094 21 64.648814843 39.5104364707 45.2968142121
49095 22 67.8895044138 43.1007781592 45.0417309257
49096 22 68.5126671767 41.4115412431 46.6019763302
49097 22 66.6156781597 38.4318279719 44.7232275922
49098 22 66.2750058717 39.2847247105 46.8786673318
49099 23 66.6852718396 40.9619885204 44.9594158204
49100 24 68.6081714068 41.6246251179 48.7907162716
49101 20 6.6340640429 16.5881116884 86.7548169848
49102 20 7.9946766092 16.6309529591 89.2064040236
49103 21 5.9348907634 15.1894096779 87.0046620373
49104 21 8.4540977905 15.1825812658 89.512840711
49105 22 6.9552706792 16.5417159017 85.4381494599
49106 22 5.6681056364 17.5775766697 87.0811776692
49107 22 9.0663631559 17.3918064435 89.7329400777
49108 22 6.7541505567 16.8003537041 89.8862519613
49109 23 7.9493284693 16.6195410922 87.6860066132
49110 24 14.1894682286 18.1386289441 84.4831071589
49111 20 83.707848531 89.0591722331 25.5701863123
49112 20 83.1706489292 91.567163827 27.016500128
49113 21 82.5441187302 88.0730746878 25.4701921674
49114 21 81.8022538439 91.5608031143 27.7576166952
49115 22 84.3940571814 88.6292628878 26.6828433319
49116 22 84.3301694349 88.9841532394 24.319932111
49117 22 84.1171791 91.1268715537 28.0330916782
49118 22 83.3410786131 92.8954302985 26.602866724
49119 23 83.1114381773 90.4936064824 25.7759740755
49120 24 84.6530691433 89.3714083938 28.3910688462
49121 20 69.9804016277 40.587735411 50.9044372192
49122 20 68.4639328928 39.4444908466 53.0950479584
49123 21 71.5043535541 40.2081505278 51.2251855101
49124 21 67.2061019602 40.5049526063 52.9989824889
49125 22 69.8140876991 41.8909331914 51.4638057755
49126 22 69.8906033311 40.4836255108 49.4853435122
49127 22 67.9620913703 38.1745932679 53.4409584803
49128 22 69.2504163078 39.9743943368 54.0841387802
49129 23 69.0640848422 39.4551543943 51.627594127
49130 24 70.6628686824 41.151780962 54.5668046248
49131 20 86.5848550003 48.4523824809 28.97868645
49132 20 89.001832279 47.0026076892 29.1877481095
49133 21 86.8420897043 49.1711430138 27.656125912
49134 21 88.1131097617 45.6942652148 29.6098936437
49135 22 85.8464510901 49.3924583991 29.7474908253
49136 22 85.8733905791 47.2935167544 28.5744070353
49137 22 89.2079006619 46.8904533583 27.7771665327
49138 22 90.1805284627 46.9504124293 29.9744186042
49139 23 88.1008560358 48.2529554304 29.5142023338
49140 24 82.6947179569 42.6094131046 27.2665322603
49141 20 14.5913156061 69.8996767006 69.5566659154
49142 20 16.7287956865 70.3262186098 71.2546020415
49143 21 13.7966006807 71.2171860845 69.8154907975
49144 21 16.5969979781 71.8596180653 71.4758238869
49145 22 13.6022247843 68.886078427 69.3317960141
49146 22 15.4616107647 70.186095851 68.4720708634
49147 22 17.2589797964 69.798560077 72.4774490543
49148 22 17.6609207138 70.232211018 70.1182794291
49149 23 15.2665800891 69.7684402317 70.98651671
49150 24 19.0180910121 69.5112990676 69.2101006142
49151 20 50.6819058153 34.4816383176 79.4285855354
49152 20 49.1307337803 32.5847428404 80.8450601254
49153 21 51.8022331061 33.4906766979 79.1562909087
49154 21 49.6814031266 31.1888470267 80.4863346382
49155 22 51.0901139055 35.3397732901 80.5092519118
49156 22 50.5170885249 35.1184579048 78.1845985069
49157 22 49.6887927781 32.895295283 82.123656914
49158 22 47.7080855574 32.3990661541 80.9188631004
49159 23 49.3730956414 33.5960026167 79.6798336862
49160 24 46.1309094323 33.2127696777 80.2797985558
49161 20 22.9151500076 72.8158763849 42.6437422451
49162 20 20.1827562119 73.172918154 42.9979778175
49163 21 22.8649190854 71.724265841 43.7391879245
49164 21 19.9422651486 71.8341752145 43.7288049965
49165 22 23.2661116837 73.9855927388 43.3517456904
49166 22 23.812478195 72.373432694 41.5876768604
49167 22 20.4030426584 74.1220674418 44.0464664709
49168 22 18.9578513214 73.4055518663 42.3442275098
49169 23 21.4439545805 72.8820090888 42.0962532551
49170 24 89.9324606681 36.1357977741 27.0298763326
49171 20 75.99192989 91.621042805 43.7762297219
49172 20 76.394338507 90.5113790619 46.2376384495
49173 21 77.2287143468 91.2914082243 42.8168845859
49174 21 77.5181267738 89.5313616097 45.8761067655
49175 22 75.5169343166 92.8345358286 43.2881385636
49176 22 75.1329530585 90.5168979156 43.4899041114
49177 22 76.8019853579 90.903217671 47.5796552852
49178 22 75.1789746855 89.7581958487 46.2188369311
49179 23 76.5589687175 91.6635099161 45.226565753
49180 24 73.9371390746 93.4713554158 42.6357913543
49181 20 93.7940680444 18.6686259742 84.1699355993
49182 20 93.9122089285 16.6794066233 82.2272055749
49183 21 95.1336528429 19.2347294028 83.6643524811
49184 21 94.9205689681 17.3649604944 81.2288543037
49185 22 93.956920997 17.7762554011 85.306819451
49186 22 92.9161961546 19.7380675636 84.4933965471
49187 22 94.8009314458 15.9433412103 83.063919912
49188 22 93.0808263652 15.9403479338 81.3809501687
49189 23 93.2034571641 17.8909353091 82.9433469908
49190 24 94.2779499076 21.8383187667 89.9591195375
49191 20 94.7116008486 95.9240649334 29.2981251824
49192 20 94.1040592477 5.1117958346 29.5717293676
49193 21 96.0802765536 95.7475551565 30.0664618583
49194 21 93.7374764095 5.1810901869 28.1209256371
49195 22 95.0471284425 96.1263917205 27.942825682
49196 22 94.0336237088 94.6759621496 29.4881047038
49197 22 93.0820423838 5.920523036 30.1396100541
49198 22 95.416891637 5.667581813 29.6168155957
49199 23 94.0155705095 3.6302071901 30.0248366062
49200 24 87.5812419338 6.1922938392 33.5223867214
49201 20 44.6793573827 59.485225705 63.545231193
49202 20 43.9702314587 61.1608057968 65.5874876628
49203 21 43.9875363388 58.045272602 63.9202326214
49204 21 44.3963992083 62.590188892 64.9931351868
49205 22 45.9751655115 59.1130304733 63.0708903988
49206 22 43.9259870896 60.1716214351 62.5587594881
49207 22 42.5802286582 60.998139924 65.3354911928
49208 22 44.2477643193 61.1309665711 67.0169642979
49209 23 44.9293895149 60.1692829378 64.9820974795
49210 24 43.4176913145 61.9028577629 68.4858212276
49211 20 38.6042219936 64.0442665187 62.5221853902
49212 20 41.2452273144 63.7744974691 61.9196949435
49213 21 38.9106586809 65.4758010314 63.0117731868
49214 21 41.6156452882 65.3037811693 61.7725566928
49215 22 38.438749924 63.2616182393 63.6830154544
49216 22 37.3515357551 64.12134339 61.8385958568
49217 22 41.3897464481 63.4894814171 63.3405659085
49218 22 42.2412400883 63.1101771536 61.090276718
49219 23 39.7241751248 63.6785255396 61.5341235072
49220 24 37.1447190531 61.8331705431 64.3010335232
49221 20 88.4853985333 57.9367663268 8.9219282081
49222 20 90.220189377 58.436269352 11.0795380733
49223 21 87.9540919447 56.5369418377 9.1817352592
49224 21 89.9841882286 57.1008003088 11.9718525225
49225 22 88.5418966283 58.0932585667 7.5497634651
49226 22 87.5374652641 58.836058852 9.5362140353
49227 22 91.6494789323 58.693504056 11.2962512959
49228 22 89.3046209106 59.4145095463 11.6154281166
49229 23 89.9361087239 57.9710954673 9.5875861441
49230 24 87.5819902529 59.4361172615 11.5120010576
49231 20 92.1013701523 87.3052057114 25.4867487283
49232 20 93.14611721 89.8078655315 26.3861347934
49233 21 91.9352433034 86.6526714223 26.9024749992
49234 21 93.3302037182 89.4423116322 27.8425509174
49235 22 92.6344539988 86.218459242 24.7354363129
49236 22 90.7855444865 87.7846911997 25.106415526
49237 22 94.321913657 90.5101630433 25.9967282215
49238 22 91.9441295932 90.5827499998 26.2401190214
49239 23 93.1962545924 88.3651062317 25.6746703721
49240 24 50.0776381106 78.3889831717 22.2941386622
49241 20 74.7282994842 85.749169602 46.6624966406
49242 20 73.8645521181 86.6527649622 44.0498339071
49243 21 76.1415001779 85.2133730986 46.3905761735
49244 21 75.0483929958 86.4633466802 43.0384805909
49245 22 74.2413308045 84.8138642183 47.6194097394
49246 22 74.9349291064 87.0786520921 47.1397371714
49247 22 72.6429211239 86.4082516836 43.3540841877
49248 22 73.9587467897 87.9568981415 44.4853556459
49249 23 74.0495740252 85.5561968041 45.2069223756
49250 24 73.5689660582 89.8131037655 44.3718917565
49251 20 53.0636185546 51.6825020439 63.8065816522
49252 20 50.5493597878 50.6253141804 62.8824075157
49253 21 52.9678337048 53.0725983842 63.081179787
49254 21 50.2065360823 49.8161941115 64.1082478051
49255 22 54.4561469321 51.3464132106 63.7545734721
49256 22 52.5831041275 51.9878162525 65.1133339485
49257 22 49.9223618893 51.9452556015 63.0865115608
49258 22 50.0468634861 49.8954224003 61.7603965068
49259 23 52.1070796153 50.7937795265 62.8945677017
49260 24 48.7656475804 51.0285646564 60.7935681794
49261 20 35.405905994 4.5439338561 61.0636178486
49262 20 34.3432928168 5.2797092954 58.6012737222
49263 21 34.4606853817 3.5280756587 61.681168218
49264 21 33.0655378871 4.5019999223 58.6818115695
49265 22 35.0640176874 5.7964236608 61.6065233839
49266 22 36.7229476784 4.1076946663 61.4927788748
49267 22 34.0794167804 6.6055063137 59.1290257949
49268 22 34.6874260808 5.3153012244 57.2642145008
49269 23 35.2762597032 4.5185003593 59.533866449
49270 24 28.6678533877 13.4861417779 62.1900252324
49271 20 12.8973081555 24.3706307327 86.4749456268
49272 20 10.46711369 25.593945445 87.0097131914
49273 21 13.281008794 24.2292919553 87.9678423089
49274 21 10.407154619 26.3773420435 88.3057084001
49275 22 14.154297229 24.5011188825 85.8243756755
49276 22 12.2501149943 23.1017620928 86.2048959576
49277 22 9.5765952068 26.2548983244 86.0679535552
49278 22 9.9499971031 24.3445331027 87.444580151
49279 23 11.9735362405 25.6551205346 86.6693215232
49280 24 13.0557647332 21.4755710642 86.1083627887
49281 20 19.9615343664 78.1031252606 6.0715244842
49282 20 21.8783538407 79.8593367397 7.1330338907
49283 21 19.9293566435 78.3281822416 4.5713223365
49284 21 21.1338698374 79.8129409531 8.5357861785
49285 22 18.9455975955 78.921412239 6.6132420628
49286 22 19.7697775871 76.7310821195 6.2188217527
49287 22 23.2549804365 79.7602779937 7.4396950738
49288 22 21.5186929545 81.0862995078 6.5391116981
49289 23 21.454898748 78.4883225373 6.4463294789
49290 24 17.7062875616 80.3018739704 7.1985305233
49291 20 18.4649896286 11.2727634289 44.5004155686
49292 20 20.2176465917 10.7445062408 46.5861680884
49293 21 17.5064863515 10.1929295575 45.0374280906
49294 21 21.037710828 9.9540193185 45.4657472577
49295 22 19.2532503015 10.588790382 43.5115118265
49296 22 17.5891756164 12.2655397225 43.9588195918
49297 22 21.2462112481 11.372682742 47.3113828739
49298 22 19.5170327979 9.7083274372 47.2857529434
49299 23 19.246702509 11.7497233401 45.8053906069
49300 24 20.7407216698 10.557519996 42.4391705005
49301 20 58.5328960608 28.4145473592 71.1111118466
49302 20 59.2220044479 26.7821826976 68.8249968773
49303 21 58.4977250613 27.4407035399 72.4855870249
49304 21 58.7545856057 27.3887888996 67.4430385076
49305 22 57.4015310627 29.2542549729 71.4255929647
49306 22 59.8055998363 28.9710161789 71.0415181667
49307 22 60.6164971632 27.1721505089 68.8979579934
49308 22 58.995918528 25.3885318414 68.6865578366
49309 23 58.2540536417 27.4391133617 69.8959351049
49310 24 62.3189232041 27.5080522623 68.3026701184
49311 20 56.201227164 89.0892920784 8.4850407869
49312 20 54.5660563056 90.7004231844 10.1585536471
49313 21 55.7720661378 87.6528934913 8.8668332115
49314 21 54.7190875695 92.2025803158 9.6629138195
49315 22 57.6214433497 88.9458018835 8.3929227009
49316 22 55.6528027751 89.4431534912 7.2131227465
49317 22 53.4185089062 90.1647202209 9.5009494958
49318 22 54.4604497672 90.7470995907 11.60382917
49319 23 55.9173335907 90.0761379428 9.7320023839
49320 24 58.8070614853 90.1505021572 96.4039245812
49321 20 83.5450891183 92.7579266568 22.470741979
49322 20 80.9534728606 93.6330858897 23.4885495477
49323 21 84.1117537862 93.4429192885 21.1192776142
49324 21 80.8814471435 95.0498410994 22.8692219204
49325 22 83.9625576579 91.4459361265 22.2218323254
49326 22 84.2876087839 93.4012940364 23.5174533745
49327 22 79.610520626 93.1789497123 23.4574007636
49328 22 81.5234114248 93.8189496558 24.7893152909
49329 23 81.9609910412 92.8186340469 22.4999264254
49330 24 85.5882809871 27.6384468723 36.8071335815
49331 20 9.2547618531 39.0612579076 84.3011720683
49332 20 8.2759791275 38.9722079301 86.8756705257
49333 21 8.9375119542 40.5839938153 84.0766763266
49334 21 8.4522924706 37.5951136348 87.6075266435
49335 22 8.0577505586 38.4088171584 83.8640601513
49336 22 10.3649681276 38.8483611126 83.4748406592
49337 22 8.3510168291 39.9614858317 87.8907654376
49338 22 6.9733425864 38.8846545908 86.3675618304
49339 23 9.4830459604 39.0070983099 85.8529988825
49340 24 30.8429365048 71.7403547025 43.8055077082
49341 20 81.8463111332 44.3431750095 31.1402998226
49342 20 83.8527418243 43.4494948779 29.5151377327
49343 21 81.736962999 43.1657883844 32.1970199866
49344 21 85.1311515332 42.7210997361 30.0396159092
49345 22 80.8439376466 43.9730376554 30.2082683351
49346 22 81.6647502021 45.469863013 31.9274380168
49347 22 82.904060236 42.4419766973 29.0862573262
49348 22 84.3093100389 44.2925699277 28.4776867866
49349 23 83.3083396508 44.2526283937 30.7218958841
49350 24 84.0212071704 43.705794183 24.4600548698
49351 20 61.6976312391 65.8777419488 19.0462465197
49352 20 60.2950005531 65.8964499273 16.7433879097
49353 21 63.1679848071 66.2150468007 18.7959337677
49354 21 58.8939600454 65.3903055698 17.1744197337
49355 22 61.7432787065 64.4690311699 19.0232357062
49356 22 61.4451670696 66.4326205903 20.3083802873
49357 22 60.0596541839 66.8057512209 15.5930343134
49358 22 61.0356494208 64.7173795841 16.3466852262
49359 23 60.8820569176 66.574520607 17.9742793532
49360 24 55.3593681327 73.5092876069 18.9296958138
49361 20 31.5938747606 15.383972654 13.1760570347
49362 20 32.738896583 17.8913094687 13.3147766951
49363 21 32.0992707991 14.7738119361 14.4464223129
49364 21 33.8710099002 17.7438905984 14.446328773
49365 22 31.5919104229 14.3800089893 12.1469872629
49366 22 30.2600894355 15.7879714491 13.4116840236
49367 22 33.4316530258 18.7908826135 12.40502641
49368 22 31.4975286715 18.3535836168 13.8934144692
49369 23 32.6389024381 16.4725899213 12.813496412
49370 24 24.8698531382 16.5681876913 14.9669718139
49371 20 6.3276086475 20.0580675353 84.4561676699
49372 20 8.3915757264 20.7254746673 86.0343727338
49373 21 5.9071374774 21.016851432 83.2658725396
49374 21 9.2602526448 21.1413530288 84.8188218326
49375 22 5.0612842927 19.4459424797 84.7789738384
49376 22 7.2051063777 19.1696256377 83.813922769
49377 22 8.8342158511 21.6135424054 87.1006339668
49378 22 8.7065900219 19.3644692335 86.3471701339
49379 23 6.9280786325 20.9840189298 85.5799559367
49380 24 9.6714353036 22.5549278821 88.3846560692
49381 20 8.1914658347 39.7863791532 60.822565546
49382 20 10.9069850339 40.1519330525 60.7917909214
49383 21 7.6990157174 40.5670630948 59.5892420653
49384 21 10.9087248758 40.6139265809 59.3177892976
49385 22 7.1873805681 39.9453969702 61.8199814183
49386 22 8.4424146579 38.4307990331 60.3590753794
49387 22 11.9883061895 40.8425380778 61.3379703529
49388 22 11.1479905665 38.7481798879 60.6994670477
49389 23 9.4766291238 40.5492905153 61.3096277655
49390 24 10.4990201473 30.5827085242 60.0468392187
49391 20 20.9698944061 15.5560860559 43.116586401
49392 20 22.4731740162 13.1729702183 42.795089791
49393 21 20.8407158147 16.3688541807 41.8092728654
49394 21 23.2306600645 12.6516723982 44.0623682526
49395 22 21.1910227116 16.6112160418 44.0369254019
49396 22 19.7216045425 14.84864385 43.3363116081
49397 22 21.302802883 12.4033801079 42.6017428334
49398 22 23.4074504611 12.8851479695 41.7828946157
49399 23 22.2495201335 14.6807397432 42.9900269266
49400 24 23.4301806549 12.1247808925 40.1431403027
49401 20 18.7338232792 82.2976411138 9.5275241792
49402 20 16.3379860162 82.8764659677 10.6869324371
49403 21 18.9688890287 83.5884916284 8.6754599458
49404 21 15.6311985895 81.460646157 10.8432563052
49405 22 18.1799735765 81.3206169381 8.6499796791
49406 22 20.0927708354 81.936857749 9.8908518292
49407 22 15.8398860894 83.6067319074 11.7952959756
49408 22 15.9174306601 83.4187167237 9.4784437977
49409 23 17.8602542244 82.6825577709 10.8097877317
49410 24 21.7212068215 76.5509242868 6.7932034617
49411 20 26.0080465485 42.5791997194 37.2120677756
49412 20 28.2993062118 42.2302959209 38.855002445
49413 21 25.9840067961 44.1378549458 37.1784869542
49414 21 28.9241526928 43.7330142916 39.0398372723
49415 22 25.2025745354 42.2164520168 38.2991884046
49416 22 25.5768276447 42.2273961842 35.9008255645
49417 22 27.5078651826 42.1875481901 40.0343534078
49418 22 29.4764122173 41.3919914056 38.8085131185
49419 23 27.5289116583 42.298018803 37.4926874526
49420 24 28.6255733564 41.1466362679 35.9529272845
49421 20 24.380826581 8.955920605 40.5124357977
49422 20 22.6402362639 8.5108671512 42.750751882
49423 21 25.8755940609 8.9876867525 40.9868701317
49424 21 21.368842047 7.9013518586 42.1331079727
49425 22 24.0442700483 10.3363916905 40.5674372544
49426 22 24.4753954121 8.4167005415 39.1674256854
49427 22 22.7210547309 7.7957546741 44.0262618542
49428 22 22.3530687944 9.9131423855 42.8601000161
49429 23 23.6261467294 8.0485930031 41.6408075192
49430 24 19.399640233 8.3556470538 48.4977493287
49431 20 87.6780557224 8.2010443197 66.6933162703
49432 20 85.8842412066 6.360169884 67.9504924236
49433 21 87.4572080365 7.8574255251 65.1990164899
49434 21 85.4012947423 5.2629656546 66.9677623145
49435 22 89.087047121 8.4481299454 66.7848918249
49436 22 86.8568690073 9.2432470924 67.0724334541
49437 22 85.7762961708 5.8660734646 69.260612156
49438 22 84.8347236143 7.3754612297 67.6643538929
49439 23 87.3535658358 6.8510765931 67.5064585546
49440 24 80.8494565003 11.4041214998 69.3764145428
49441 20 27.8946526375 34.4701329108 90.1346003755
49442 20 28.1579674345 36.5662683587 88.1748460907
49443 21 26.7508468337 34.5348625163 91.1146178278
49444 21 26.7298938978 36.2987442666 87.4705842411
49445 22 28.9567045753 33.8972010701 90.8468131159
49446 22 27.4720394038 33.5965638561 89.0619784298
49447 22 28.2623579543 38.0205330652 88.0529636109
49448 22 29.162118179 35.8147688635 87.3965941862
49449 23 28.0212121118 35.9937106776 89.6799029588
49450 24 28.6141614895 32.5006504772 88.1508998782
49451 20 94.9727642281 72.7120471043 40.9030583882
49452 20 92.6485785226 72.1441664178 42.2998896008
49453 21 94.6481808016 72.7407638513 39.3418775847
49454 21 91.5840010076 71.7877794279 41.1977090491
49455 22 95.4139919003 71.4162389755 41.0819066624
49456 22 95.8665378996 73.7981387945 41.0487935405
49457 22 93.2277775361 70.860518475 42.6469226015
49458 22 91.8413292515 72.8533858817 43.2694305851
49459 23 93.637108105 73.1485042421 41.5864608418
49460 24 94.9377803083 65.0303640639 43.5932656925
49461 20 59.2817764391 84.4535485529 37.6303781742
49462 20 59.0570936176 81.638746112 37.2285307966
49463 21 60.1524457572 85.0471527098 36.4485951741
49464 21 58.3845417916 81.0833062312 38.5280805212
49465 22 59.552948587 85.2030837104 38.8117870147
49466 22 57.9011276278 84.6624231326 37.1653913693
49467 22 57.9739016641 81.7298539672 36.3060403782
49468 22 60.0501131149 80.6545193646 36.9491271381
49469 23 59.7199172949 82.9859076418 37.7416906461
49470 24 59.4247053946 82.9930166736 27.7025216986
49471 20 6.7122540389 31.3351434184 62.6580988538
49472 20 9.081086335 29.753851538 62.6073066923
49473 21 6.3355876003 30.4958099642 63.9758888574
49474 21 9.783234183 29.5587273226 63.927528733
49475 22 6.0650141077 30.6728809805 61.5882831049
49476 22 6.1901424217 32.6405861561 62.9842724585
49477 22 8.2527344642 28.6100457342 62.3639158923
49478 22 10.1806758316 29.851226566 61.6998761965
49479 23 8.3244889156 31.2228020076 62.7299374911
49480 24 5.7656958061 31.5491626921 59.7568655524
49481 20 84.5332445412 57.7642787653 10.0331353594
49482 20 85.981242075 56.9688155207 12.3233847919
49483 21 83.0615814147 57.7175088191 10.3570920686
49484 21 87.2272869811 56.1416422526 11.9904388991
49485 22 84.6978747518 57.3696339595 8.6852255105
49486 22 84.996641168 59.059338575 10.323735743
49487 22 86.3363195063 58.3113935957 12.3864213254
49488 22 85.4116776704 56.5824957652 13.5770625533
49489 23 85.0326540265 56.644419174 11.0178859302
49490 24 37.9902261401 41.1761948739 82.7987343172
49491 20 59.7247813693 81.360652012 22.6415458224
49492 20 60.6683182635 81.5027391085 25.1530919323
49493 21 60.4144509957 80.0422072292 22.3630775629
49494 21 62.0818931169 80.9460832091 25.1284909406
49495 22 59.7718319351 82.1463871079 21.4521860911
49496 22 58.3715397465 80.9693746423 22.9143081486
49497 22 60.7166783879 82.4685384972 26.2463861942
49498 22 59.8196308201 80.4015874957 25.3583184561
49499 23 60.4173507323 82.1071003531 23.7649599297
49500 24 56.6033551612 81.5511927728 23.3838784082
49501 20 9.7984624775 19.9496548001 26.7212882277
49502 20 10.2338532604 18.939049803 24.2668949921
49503 21 10.2896498062 21.3720224033 26.4322499603
49504 21 8.841193927 18.1600495795 24.2285436362
49505 22 10.1270774733 19.7503212895 28.0924895098
49506 22 8.397169412 20.0339342431 26.3181312916
49507 22 10.0481578661 20.1804177145 23.5696486344
49508 22 11.1044477466 18.0122565495 23.5844279374
49509 23 10.5843940071 19.0121979989 25.7691456634
49510 24 13.467807959 21.9775061266 13.6672350095
49511 20 30.1816094658 74.127118596 49.9681964366
49512 20 29.7212061156 76.7417456672 49.1198831528
49513 21 29.9052926238 73.9572501514 51.4728791451
49514 21 30.5325711419 77.1317134785 47.8034027077
49515 22 31.2619016826 73.2963908119 49.5857118167
49516 22 28.8998323208 73.8427573232 49.48730785
49517 22 28.4341907366 76.3548646724 48.6041977262
49518 22 29.7758334127 78.0058437726 49.807027202
49519 23 30.6135766887 75.6532219398 49.7529611443
49520 24 34.3307584712 75.4902754473 38.3908574991
49521 20 90.5576813087 12.4112187509 76.9680186668
49522 20 89.7190026338 14.236051095 78.8814707049
49523 21 90.2656497647 11.0443483658 77.6049317939
49524 21 89.2982601979 15.3984713373 77.9224061886
49525 22 91.7863277948 12.2688042648 76.2243765226
49526 22 89.4240713532 12.6311871617 76.1274691941
49527 22 88.507380408 13.5259897721 79.2073636899
49528 22 90.2533024989 14.8736190013 80.0599798088
49529 23 90.7654334096 13.4110292443 78.1403541378
49530 24 90.7822705902 18.4077432144 82.4153142984
49531 20 85.5199033258 13.842341688 75.1393137712
49532 20 84.7066675017 14.7918651354 77.8174544293
49533 21 84.7616689584 14.898219993 74.1536839254
49534 21 84.5416631315 16.2379918713 77.2778227903
49535 22 85.3709878172 12.5751099963 74.5015587851
49536 22 86.8578044063 14.3669134044 75.11424508
49537 22 83.4946711163 14.652303616 78.4172322192
49538 22 85.8933145761 14.7950454917 78.5843880068
49539 23 84.823685907 13.7975360796 76.5528886245
49540 24 91.1882337231 9.7494382199 71.8566247887
49541 20 83.1568050251 79.9569923873 19.1721512148
49542 20 81.7792430304 80.096273287 16.6962438039
49543 21 82.4978164835 79.3336425446 20.5353080662
49544 21 82.6662818296 79.6172554982 15.4519761558
49545 22 83.0168693462 81.3926426552 19.3932795203
49546 22 84.4723500713 79.4096904771 19.2423061341
49547 22 80.5179511218 79.629602764 16.2639024214
49548 22 81.7919644557 81.5270594806 16.6722040516
49549 23 82.3890295887 79.3486089274 17.9681057203
49550 24 85.4391783987 79.0702342077 20.6995641171
49551 20 5.5594777594 35.9865081059 60.6050852963
49552 20 7.5251905354 34.1140265406 59.6412502454
49553 21 4.752546524 36.0701327696 59.2703645722
49554 21 8.4954985468 34.5124129422 58.4442202429
49555 22 5.4672193636 37.319451572 61.1242316989
49556 22 4.9144079537 34.9982591431 61.4159826232
49557 22 8.4298709584 33.5477360322 60.6040563575
49558 22 6.5233034563 33.1990193135 59.1294934943
49559 23 7.0048187602 35.5241404179 60.2006188017
49560 24 11.7653538561 32.5404049314 58.266868607
49561 20 27.7946584925 11.3254357423 60.4777775028
49562 20 29.6739684699 13.1724089789 59.5394788425
49563 21 26.3069065046 11.3477075907 59.9477804727
49564 21 28.8237843883 14.4201376031 59.1041441835
49565 22 27.7346058816 12.0342810466 61.7448688847
49566 22 28.0090519258 9.9106822863 60.6258511524
49567 22 30.0350324545 13.436565635 60.8735447874
49568 22 30.738452445 13.1186235408 58.5601161695
49569 23 28.669350026 12.0506505278 59.3329427602
49570 24 32.9645148034 8.0187444235 58.7596367599
49571 20 58.2949305747 92.7015221017 10.3780730665
49572 20 59.1233198614 90.0318000338 11.1111171409
49573 21 59.2669035962 93.7149332955 11.0763764249
49574 21 60.1470204434 90.2244922121 12.3052754688
49575 22 57.1123992555 92.6783242084 11.1679145636
49576 22 58.036573392 93.2654741127 9.0788320236
49577 22 57.8726915006 89.7939280875 11.8207294724
49578 22 59.6610807026 88.92279107 10.413262774
49579 23 59.1632613955 91.3916829889 10.285487281
49580 24 57.0327032672 4.9606073066 94.3014284206
49581 20 91.1826213295 50.3107395224 32.7925884812
49582 20 94.1049946466 50.1666880882 32.8089579624
49583 21 90.7493445481 51.1764512262 31.5954649388
49584 21 94.1281925399 48.6440457203 33.0504779645
49585 22 90.2387102757 50.743829224 33.7702674362
49586 22 91.110969772 48.9479568306 32.3729685241
49587 22 94.2259417275 50.3287927216 31.3936058511
49588 22 95.1636791484 50.6954690997 33.6006796113
49589 23 92.6478302034 50.7276468226 33.3088351472
49590 24 91.1011480833 47.0302019574 32.2961722725
49591 20 78.576437116 55.3633903481 88.5135540409
49592 20 77.1125378005 52.9499675853 88.1143257803
49593 21 78.3679366959 56.519262798 87.4964947913
49594 21 75.6529413201 53.4000815474 87.6858195334
49595 22 80.0079716286 55.3795727495 88.6924023151
49596 22 77.7378519809 55.7186548593 89.6480993954
49597 22 77.3501291271 51.7230048173 87.394162149
49598 22 76.908807915 52.8069450899 89.5096603547
49599 23 78.0408276923 54.1560709574 87.6868484722
49600 24 70.6570692091 56.2332178072 90.6761028124
49601 20 90.3191545831 7.5397266347 32.9324306203
49602 20 92.9777454038 6.9625854988 33.9194635645
49603 21 90.3113907721 8.9477078025 32.3417262001
49604 21 93.8315775413 8.1713266959 33.4304370072
49605 22 89.0154891033 7.3896138154 33.5042399823
49606 22 90.5637614017 6.6428661467 31.8171544837
49607 22 93.5017558808 6.625290001 35.2399662249
49608 22 93.1622060715 5.9678448675 32.903994493
49609 23 91.4908352748 7.58548635 33.9879347657
49610 24 71.7845990716 27.8699581059 10.727800016
49611 20 71.4238157068 20.5240832791 9.3953710193
49612 20 71.589568396 21.5576990897 6.8844609807
49613 21 70.109673759 20.5254863775 10.263767318
49614 21 72.2993490992 20.5296956726 6.080364004
49615 22 72.1124563943 21.6230834744 10.0118456799
49616 22 72.0567066185 19.3173251277 9.6167892985
49617 22 70.649305398 22.0762842529 5.8694970247
49618 22 72.6177588928 22.4270588492 7.3269795035
49619 23 70.823102518 20.7681288582 7.9711045563
49620 24 15.6596347168 14.8370449034 49.5585852479
49621 20 28.590308817 42.3450693688 89.0747933951
49622 20 31.1006389082 43.3324764726 89.9941969971
49623 21 28.689367563 42.9921783442 87.6164129333
49624 21 31.7585985111 43.9460981664 88.7354306656
49625 22 27.695225587 43.1266887094 89.8658602648
49626 22 28.2295254521 41.0564638117 88.7565706813
49627 22 30.424719646 44.3815263654 90.6830247644
49628 22 32.1536174765 42.6366332133 90.6263395897
49629 23 30.1554182959 42.2556452317 89.3795463644
49630 24 30.7108581768 33.2401768662 91.2158279913
49631 20 54.9362871996 66.6668444808 69.2451780738
49632 20 53.1700669521 65.5405306369 67.3564205673
49633 21 56.1166671013 65.8813900046 69.9264291099
49634 21 51.6092603081 65.791591708 67.7617289209
49635 22 54.4387485121 67.3725094288 70.36082837
49636 22 55.5674008534 67.5736201973 68.274327531
49637 22 53.3790350716 66.647575263 66.5201739296
49638 22 53.2859628787 64.3001916642 66.6673121802
49639 23 53.8908853626 65.5557776393 68.7004017407
49640 24 54.5640919679 66.5385077485 65.0761986112
49641 20 62.4390284259 47.5828356415 6.4715852498
49642 20 63.2055878438 47.7921779206 9.1252839341
49643 21 62.479811819 46.0644025688 6.4552251227
49644 21 62.6377071573 49.232692263 9.6587980642
49645 22 62.9802502431 48.0045134763 5.1988253505
49646 22 61.052018902 47.893481624 6.806841578
49647 22 62.2367016387 46.7564106925 9.4616159711
49648 22 64.4174906892 47.645881529 9.8502742238
49649 23 63.4966839888 47.8933880841 7.5960563579
49650 24 61.7811623629 45.0458466809 10.1083788488
49651 20 10.8791662699 60.6148134451 37.6400127831
49652 20 8.1292805143 60.887762851 37.7256017846
49653 21 10.9943232313 59.3557664939 38.63340644
49654 21 8.1809425968 62.5151698983 37.2704366684
49655 22 11.0132276436 61.890604037 38.3345464839
49656 22 11.9335011666 60.3321358904 36.6799193279
49657 22 6.8899891884 60.4493413755 37.1698812841
49658 22 8.1233033151 60.9551115735 39.1287937099
49659 23 9.4298217617 60.2606714126 37.0913077745
49660 24 11.5659080976 63.0164501814 39.7324066353
49661 20 46.4351947021 28.5683269422 17.4582197671
49662 20 44.83809458 30.077967265 19.128561625
49663 21 45.7186791267 27.8676196086 16.2576352486
49664 21 43.9131721243 28.8794406242 19.4928995057
49665 22 46.4665305661 27.4806450739 18.3892223157
49666 22 47.69714139 28.9157341025 16.94300204
49667 22 45.6968843317 30.132781642 20.2502920141
49668 22 44.0587201968 31.2026909308 18.9829200126
49669 23 45.5601290091 29.7831295243 17.7736362841
49670 24 40.8123246926 29.5677071522 80.5725784189
49671 20 53.5961411618 69.0369582734 73.8522983922
49672 20 52.351499354 66.512877818 73.9904568132