ITEM: TIMESTEP
19000000
ITEM: NUMBER OF ATOMS
4000
ITEM: BOX BOUNDS pp pp pp
3.23005382 96.76994618
3.23005382 96.76994618
3.23005382 96.76994618
ITEM: ATOMS id type x y z
49081 20 28.925742871 33.8068415341 42.9981648973
49082 20 30.1547635167 36.111477402 42.0161831073
49083 21 29.3578971737 32.7925884812 41.9246075527
49084 21 31.2349621936 35.5406969789 41.0637599233
49085 22 27.6045854313 34.2583585945 42.597814158
49086 22 29.0827028103 33.025689893 44.1690037299
49087 22 28.9896306174 36.3931260179 41.1844263844
49088 22 30.7150674719 37.1853153663 42.6296177214
49089 23 29.954588147 34.9708519546 43.0797316834
49090 24 29.1062748632 37.437592456 38.8129094934
49091 20 57.5549364862 48.500929685 53.6474945627
49092 20 54.7210519073 49.3033148817 53.4739780623
49093 21 58.1950299696 49.1442970647 54.8069215285
49094 21 54.4719551739 50.5412218172 54.4980528039
49095 22 58.7105283164 48.5298335118 52.7294005192
49096 22 57.2280145624 47.1368374347 54.0291373235
49097 22 54.0455068047 49.5165858363 52.2391579433
49098 22 54.288523445 48.1009531053 54.1535453803
49099 23 56.3001923701 49.3816077716 53.2497629404
49100 24 58.5111012659 45.9791877269 54.8845596391
49101 20 3.9716287326 13.5039143575 80.7613419217
49102 20 5.9017589336 12.691801012 82.7270827596
49103 21 3.5087316089 12.0814719223 81.0677786091
49104 21 6.6106977778 11.4429873251 82.0296493222
49105 22 3.9937088242 13.5509649233 79.3231660767
49106 22 96.5244039625 14.3434348914 81.3853465436
49107 22 6.9706766995 13.3839026756 83.4138526493
49108 22 4.8962237987 12.0816122322 83.5590265623
49109 23 5.3664862535 13.569485822 81.4990910527
49110 24 11.8933631988 15.3480533353 78.8339524396
49111 20 83.6307716597 86.5621248065 27.6311507607
49112 20 84.3806809768 89.1758164788 28.6017206838
49113 21 82.3976352587 85.8581435766 28.3833050352
49114 21 83.5587459426 89.5285554129 29.8651640099
49115 22 84.8802775419 86.0456910608 28.2052050801
49116 22 83.379429969 86.2411894358 26.2719225848
49117 22 85.6574069676 88.702036924 29.086444406
49118 22 84.4904968104 90.4371083874 27.9091513208
49119 23 83.4910230605 88.1144193202 27.7798791895
49120 24 86.0423236247 87.0107421303 29.6414165874
49121 20 59.3806481053 43.1067647123 54.0609408869
49122 20 58.5734923741 40.3441575313 54.3742995263
49123 21 60.4369005698 43.3084367202 52.8700845173
49124 21 57.29966612 40.393078895 55.1519901914
49125 22 60.2288678492 43.0629880427 55.2228934298
49126 22 58.4054011876 44.1814445356 54.052148137
49127 22 58.2809931307 39.2218659028 53.5268281015
49128 22 59.5586545205 40.1012344309 55.4368191636
49129 23 58.6742348382 41.7673669936 53.6100786057
49130 24 60.5796424456 41.0060458097 56.5821216057
49131 20 92.9231181067 46.9064486799 31.121685384
49132 20 93.5004463223 44.2038941098 30.0587915871
49133 21 92.992337627 47.9917920509 29.9151143124
49134 21 92.7424925745 43.4484659391 31.1409546018
49135 22 93.4585404505 47.5707689954 32.2663330468
49136 22 91.5399437183 46.6557617683 31.3024979959
49137 22 92.6237904511 44.1288751161 28.9661521045
49138 22 94.6724076337 43.4667062181 29.8114721117
49139 23 93.8152080601 45.5875361976 30.7567862639
49140 24 85.519716246 43.5566915945 32.2588498554
49141 20 16.1255569206 70.6738128498 68.158712224
49142 20 17.3285734763 72.5243125404 69.8562741906
49143 21 15.6442006345 71.6362448023 67.0402557311
49144 21 17.2912510592 73.8075863237 68.9958942607
49145 22 15.1400206147 69.6622724538 68.1612378011
49146 22 17.4159397357 70.2050844492 67.8317903002
49147 22 17.5175240588 73.0666568363 71.1355257585
49148 22 18.5391667632 71.9513806997 69.4606939858
49149 23 16.1503449921 71.5961161885 69.3833364948
49150 24 19.5372374147 70.49112944 69.7454294181
49151 20 37.8526289584 29.725228331 81.8434113965
49152 20 35.7245964072 31.4940676955 82.0208565723
49153 21 36.9359380133 28.8274324441 80.9702165013
49154 21 34.4555406876 30.8342372948 82.7216574459
49155 22 38.4892614658 28.7780433809 82.7563607459
49156 22 38.723765976 30.4550265712 80.9988397084
49157 22 35.6741784053 32.8670462355 82.4189623542
49158 22 35.4685777219 31.2269177629 80.6475974126
49159 23 36.8985220564 30.6681104459 82.6405583592
49160 24 35.1297762317 31.5609487185 78.8003716183
49161 20 21.0015108897 74.5597405981 43.2387495004
49162 20 18.9962026773 76.2917252451 43.5796088682
49163 21 20.9148929494 73.3792671565 44.2929440873
49164 21 17.7147061519 75.8742567055 44.295843824
49165 22 21.9365356537 75.5029033328 43.7821227351
49166 22 21.6134488655 74.0387233977 42.0767034176
49167 22 19.6955069126 76.8900999365 44.7367908766
49168 22 18.5065213408 77.2047681344 42.6823742207
49169 23 19.5554776937 75.017805451 42.9251102413
49170 24 88.2409787946 34.7316704498 27.6672571591
49171 20 75.7971798342 90.7907827204 46.1709445062
49172 20 75.4131050361 88.8216744464 48.0622275899
49173 21 77.3690241854 90.9592480666 46.096393212
49174 21 76.969608845 88.5155183787 48.2626835792
49175 22 75.2874809607 92.0945417401 45.8834028771
49176 22 75.6612663706 89.8775527513 45.1311550628
49177 22 74.7546777338 88.5530278755 49.3137913496
49178 22 74.9906788822 87.9057318204 47.0616313613
49179 23 75.4510822324 90.3003530648 47.6190355799
49180 24 73.543990907 92.7139629073 45.560222549
49181 20 90.9968511033 17.6201373208 80.4281528251
49182 20 90.0421829619 16.3012248385 78.0542974368
49183 21 92.2341967994 18.5667610314 79.9566182277
49184 21 90.9431592051 16.6076615259 76.8839263036
49185 22 91.5526651437 16.4405057382 80.973116238
49186 22 90.3185933438 18.4325312859 81.3721574188
49187 22 90.5893913322 15.0171091962 78.5169457444
49188 22 88.7029723229 16.2922450088 77.4662121335
49189 23 90.2605986105 17.4542910916 79.0901582048
49190 24 92.6320219616 17.9443465877 86.9684620989
49191 20 5.1955888702 95.5583239542 34.1976512044
49192 20 96.4420888572 94.244556166 35.0819773467
49193 21 4.946295703 95.5800252093 32.6552719192
49194 21 3.5049348247 93.323468846 36.1177445748
49195 22 6.0789609056 94.4540855249 34.2928748148
49196 22 5.8026253556 3.266023089 34.5120387826
49197 22 95.1255148723 94.5484672763 35.6115066774
49198 22 96.3080461915 93.3965235019 33.9201183437
49199 23 3.7828652299 95.4994873619 34.8936815434
49200 24 92.261510448 95.5488764251 30.3909517449
49201 20 41.1998604666 66.5281248204 73.0391561079
49202 20 41.2248356179 68.1009981105 75.4379866475
49203 21 39.9566217573 65.715076076 73.2611262725
49204 21 42.3208425367 69.2382561218 75.4165660121
49205 22 42.1619182596 65.6217232634 72.3867153587
49206 22 40.8608718967 67.7110302992 72.2725031501
49207 22 40.1006731915 68.7828103859 74.9042480217
49208 22 41.0027719134 67.6333921885 76.787112515
49209 23 41.7530553901 67.0112583645 74.4620849505
49210 24 40.2650227824 66.705757076 78.1546657413
49211 20 36.3153943674 72.1818629944 71.4823716794
49212 20 39.0070047701 71.8045230687 72.3367650562
49213 21 35.9527402047 73.729948213 71.474888488
49214 21 39.7981651796 73.1951806484 72.4930702163
49215 22 35.7781012257 71.6909656393 72.6809918601
49216 22 35.6055201243 71.6538303021 70.381687766
49217 22 38.6679226602 71.3776069999 73.6373437196
49218 22 39.8873086971 70.858741217 71.6879723628
49219 23 37.853844977 72.1287323356 71.335794668
49220 24 35.2960901603 70.6204951112 73.9643591833
49221 20 91.7596689255 58.1141179627 5.7146136709
49222 20 92.9083388037 57.2421390862 8.1594751915
49223 21 90.6039835554 57.0931300376 5.2989317433
49224 21 92.4267018979 55.8381053018 8.5079674145
49225 22 92.3424224549 58.5750825523 4.5167043934
49226 22 91.0091983691 59.1368831458 6.3926469347
49227 22 94.2108818048 57.1221274043 8.743005102
49228 22 92.0030597254 58.0242261262 8.973309671
49229 23 92.8661523122 57.3164097607 6.5775659479
49230 24 90.3485261093 58.9963862275 8.4673056233
49231 20 91.6163658104 86.9800610456 25.9350854324
49232 20 92.9823288585 88.939254091 27.6645445023
49233 21 91.6079472201 85.5323441315 26.5462750891
49234 21 93.2183300069 88.2293798479 29.0465964119
49235 22 91.9702272232 86.7796050562 24.554623701
49236 22 90.3364594632 87.444580151 26.3011070312
49237 22 94.0923667612 89.7455679632 27.5426620225
49238 22 91.7467604203 89.6346296509 27.8294553325
49239 23 92.8432350386 87.7764596891 26.6007153065
49240 24 49.3202456022 77.7208277205 30.9192650569
49241 20 75.8030728474 84.1599268308 45.6014736415
49242 20 75.3079661971 85.8562727788 43.3211581456
49243 21 77.3412428373 83.9768692615 45.4207545695
49244 21 76.7562443505 85.9894735855 42.7482263049
49245 22 75.355016763 82.8672990583 45.9987375644
49246 22 75.7194481836 85.2388159493 46.5846714501
49247 22 74.4371097992 85.7702160778 42.1964344799
49248 22 75.1843999993 87.049187026 44.0758379971
49249 23 75.2695213013 84.5586873919 44.1879923281
49250 24 74.6028624885 88.3471465724 45.1182465576
49251 20 47.9892664738 56.4461146022 64.64273475
49252 20 46.4639114491 56.3604320608 66.9467158387
49253 21 48.9421573573 55.1659276353 64.4724921459
49254 21 46.5979541148 54.880350344 67.4971981053
49255 22 48.7950191066 57.5327675317 64.1793381233
49256 22 46.9264662168 56.1010459393 63.8216415749
49257 22 46.4875770419 57.239707049 68.0959469563
49258 22 45.2283430109 56.3699731298 66.1384376288
49259 23 47.7601872774 56.4424665464 66.1587357855
49260 24 43.5885886978 57.1509376911 65.5497910862
49261 20 42.8230582188 5.9834192596 63.0370289578
49262 20 41.4327747986 5.9460126566 60.5760879297
49263 21 41.8438826255 5.2785306927 64.0828984942
49264 21 40.1917810467 5.0230264768 60.7628870947
49265 22 42.5458995177 7.3789876837 63.2396363646
49266 22 44.1399128234 5.5328469521 63.3954738253
49267 22 40.8748093407 7.2303340867 60.861665221
49268 22 41.8293839422 5.777949532 59.1841207915
49269 23 42.5112897575 5.4843745799 61.6130711764
49270 24 36.0935177427 15.9289360669 63.6896567868
49271 20 10.5645729039 20.9014232049 83.2651242205
49272 20 7.9617037971 22.0307303253 83.5996228756
49273 21 10.7939514279 20.4055682355 84.741090182
49274 21 7.7172653504 22.4676551625 85.0303155292
49275 22 11.8510083355 21.4804351386 82.9273516692
49276 22 10.1441204417 19.7373192444 82.5373838579
49277 22 7.2764492537 22.9623876532 82.7435457807
49278 22 7.5320750715 20.6956354417 83.4423823165
49279 23 9.4910529752 22.0612243302 83.374191735
49280 24 10.3893820395 18.2415228257 81.0259662772
49281 20 23.7922735782 83.089175683 5.7081313564
49282 20 25.1982717003 84.1322390227 3.5082180749
49283 21 23.8657023937 84.3023880869 6.5499062017
49284 21 25.0358864472 83.121259866 95.9275259094
49285 22 23.9598035255 81.9779217617 6.5374279801
49286 22 22.5682105468 83.2416457075 5.0041875424
49287 22 24.1605401345 85.1285324162 3.2401602441
49288 22 26.5641412085 84.4937707066 3.2812328625
49289 23 25.0472047741 83.2003010751 4.769916882
49290 24 23.1297305207 86.2042411783 95.9322964439
49291 20 26.4922090313 17.8789622029 45.1842857216
49292 20 27.7185170202 17.1776936299 47.5425199479
49293 21 25.0540331863 17.7971147971 45.876574465
49294 21 28.5515833015 16.0119994913 46.9344171077
49295 22 26.6609549971 16.5376936864 44.7281852065
49296 22 26.3789322217 18.7958402278 44.0911785395
49297 22 28.5446613495 17.6518473443 48.6033558672
49298 22 26.4845387601 16.5881116884 47.9341714772
49299 23 27.5094553607 18.2148639564 46.3706521764
49300 24 28.061060106 15.4140924993 43.8263671042
49301 20 60.2041733176 33.28900469 77.7075450558
49302 20 58.5477689037 32.8859412938 75.4175014111
49303 21 60.0622733009 31.9690632689 78.6185300675
49304 21 58.0506979157 34.294464993 74.9440024759
49305 22 60.2383153783 34.4046549862 78.6062763416
49306 22 61.3906333123 33.073488778 76.8758818728
49307 22 59.6348895327 32.5752017714 74.5113804738
49308 22 57.3364272977 32.1769089097 75.1764491085
49309 23 58.83774257 33.2179143718 76.9046921597
49310 24 61.642068543 32.4041173083 74.6129647969
49311 20 56.923355133 90.2016684783 7.9619563548
49312 20 54.5706397604 91.6788504585 8.1658265502
49313 21 57.5022735268 89.9478012105 9.3541760507
49314 21 54.5911249968 92.0458074562 6.6520704721
49315 22 57.5580233027 91.4108586669 7.5118985167
49316 22 57.3204319761 89.1017328841 7.1810011475
49317 22 53.2136565419 91.4612766689 8.5374792505
49318 22 55.2541357538 92.7371608006 8.8340755412
49319 23 55.3579650344 90.3060589982 8.1737026091
49320 24 58.5118495851 90.2590084324 95.1654564063
49321 20 82.4255101467 90.159388447 24.8253281495
49322 20 81.460646157 92.1923844675 26.5896775992
49323 21 82.0499474788 90.4639543365 23.3767693764
49324 21 80.9112863691 93.407748289 25.8006686071
49325 22 82.0581789894 88.7985700929 24.9068949356
49326 22 83.7879186789 90.649537483 24.8937058108
49327 22 80.7576938659 92.0725598654 27.8599493374
49328 22 82.7726366872 92.5450298617 26.8656202816
49329 23 81.3591553738 90.8933959823 25.7223757172
49330 24 91.3420133061 29.3916650748 39.3272853615
49331 20 8.2616675239 26.9973244501 88.6008267605
49332 20 10.6251961081 28.2590840581 87.8395991165
49333 21 8.0361334895 25.813764192 87.503697363
49334 21 11.628972693 27.3934658942 87.105685121
49335 22 7.5697342322 28.1631121285 88.0568922864
49336 22 7.7038517298 26.5119459486 89.8384530763
49337 22 9.9453481704 29.025643476 86.8729578688
49338 22 11.4501057109 29.0516475661 88.7121392324
49339 23 9.7977796363 27.1654156366 88.6758457542
49340 24 29.0391132205 72.0309831481 44.6028417507
49341 20 86.7788567371 47.3291554534 35.1675663482
49342 20 87.811350069 45.1683839399 33.7173238571
49343 21 86.605995016 46.4706463213 36.413891874
49344 21 88.2185292204 44.1625494774 34.8543947886
49345 22 85.4841710869 47.3971589552 34.5632986436
49346 22 87.2435629223 48.5231921794 35.7227256094
49347 22 86.4920634271 44.7466125653 33.4194928398
49348 22 88.8477720763 45.053610492 32.7717290852
49349 23 87.883469326 46.5515583282 34.3857599279
49350 24 86.2275326115 45.3978372959 29.5009196691
49351 20 59.3518378185 59.5617413369 25.1504728153
49352 20 57.0437409745 58.0477981791 24.7966114025
49353 21 59.3428579888 59.6105691607 26.7055735258
49354 21 57.4476462297 57.4320250677 26.1906364184
49355 22 59.9748135016 60.8335097134 24.8303793037
49356 22 60.0907094282 58.3800518767 24.8081168093
49357 22 55.6229635494 58.2292655702 24.8495549816
49358 22 57.5642904755 57.1212855452 23.8247319209
49359 23 57.826295714 59.4167545038 24.7460998606
49360 24 50.9379245007 67.0913285123 25.1960267429
49361 20 29.4003642848 11.8920536403 20.5600025977
49362 20 29.2287185823 14.2512045575 22.1495259886
49363 21 30.3696246494 10.8898017556 21.2856850827
49364 21 29.8289640716 13.9908830371 23.572641911
49365 22 29.6159737367 11.5721097925 19.2002131825
49366 22 28.0779908265 11.6104050244 21.0261118814
49367 22 29.5697650299 15.6195996429 21.8703094099
49368 22 27.7853980432 14.0507485682 22.2896487474
49369 23 29.9678708117 13.2866211875 21.1129169015
49370 24 22.7673569777 9.7522537706 18.7114672449
49371 20 96.4616386947 17.2997631894 79.387147363
49372 20 5.3576747957 17.9874684781 80.4988689837
49373 21 95.7615861403 18.3372141356 78.5609094938
49374 21 5.7902313199 18.8779682533 79.2608685083
49375 22 95.4411184691 16.6438614642 80.1739113977
49376 22 3.5512295882 16.4419088366 78.4281763866
49377 22 6.0000225905 18.6009030922 81.5863637723
49378 22 5.8661576505 16.6338526957 80.2865334281
49379 23 3.7942406162 18.1280589363 80.3803539401
49380 24 6.7948778258 19.0052760468 83.1750453042
49381 20 10.7454697017 48.456591776 59.5830684324
49382 20 13.5629380295 47.8452150396 59.2797185614
49383 21 10.5170546386 49.6241567125 58.6468276497
49384 21 13.5850134441 48.4717452386 57.8422910355
49385 22 9.9190166907 48.7240223283 60.7008701461
49386 22 10.3773434553 47.3412220995 58.7454186963
49387 22 14.815624268 48.2604386218 59.7904463737
49388 22 13.3098190808 46.4807486297 59.0073303949
49389 23 12.3022728382 48.5877347051 59.936181526
49390 24 7.3942066241 39.5434560527 59.21143444
49391 20 29.8083852953 19.5594063692 41.7849524934
49392 20 30.5908464949 16.8949225353 42.4941719572
49393 21 29.8895779218 19.9466615235 40.2164755783
49394 21 31.7208083946 16.7774364305 43.5905530356
49395 22 30.253541643 20.7552203531 42.5159667522
49396 22 28.4161375374 19.2749515565 42.0544409232
49397 22 29.4280520929 16.7672405822 43.2745752792
49398 22 30.8743659086 15.8659837193 41.5758908339
49399 23 30.7856900906 18.355080255 41.9743707754
49400 24 29.7472102057 14.4442708954 40.4627661149
49401 20 23.4743314841 88.9746121704 3.8832690795
49402 20 20.9436096963 90.1009260143 4.2865681962
49403 21 23.8598093805 89.8229254542 96.2062747886
49404 21 20.0039079377 89.0467314274 5.2085534993
49405 22 23.0135539743 87.7329636392 3.3618917505
49406 22 24.7403003873 88.9532850749 4.5807137417
49407 22 20.3831186613 91.4224576135 4.636931217
49408 22 20.7018090746 89.6924373043 96.5306711353
49409 23 22.424626812 89.9110400328 4.6570797099
49410 24 24.6517181092 80.2710993458 6.7856267305
49411 20 29.1126355759 37.4396503337 35.6467712168
49412 20 30.3312732936 35.2959030806 37.1542601221
49413 21 30.2644858104 38.2557858945 34.9450349443
49414 21 31.8877771024 35.2627899587 36.9079695855
49415 22 28.8997387809 38.271032897 36.7937573769
49416 22 28.0403877898 37.4944647106 34.6932255541
49417 22 30.1616854687 36.1084841255 38.2910504339
49418 22 29.9265261793 33.9475255322 37.2978438569
49419 23 29.7336469213 36.0308460148 35.8540556183
49420 24 28.8920685097 34.4831349558 34.6790074904
49421 20 30.6509926456 12.1693339432 42.3421696321
49422 20 29.8317702684 12.8633531746 44.8901027601
49423 21 32.0542781108 13.0166650582 42.3478755656
49424 21 28.5791775698 12.0638022367 45.5738793733
49425 22 29.7346758601 12.9519354526 41.6004918256
49426 22 30.9406856923 10.9495643929 41.6698048859
49427 22 30.788870447 13.0061885902 45.9783458679
49428 22 29.2184291942 14.1157587934 44.4309154285
49429 23 30.5061928923 11.9699068927 43.8119619608
49430 24 25.940697826 15.1543322183 48.8200877978
49431 20 81.6163900778 13.9585182343 59.9330011697
49432 20 78.9330111856 13.5192548998 59.4039395385
49433 21 81.576167924 15.3151272932 59.1583037812
49434 21 79.1428211642 12.0475169414 58.9775847091
49435 22 82.0960626458 12.922938086 59.086278064
49436 22 82.5608623709 14.2475565017 61.0029104585
49437 22 77.7805061719 13.5064399346 60.2649742477
49438 22 78.9337595048 14.2399797704 58.1310486833
49439 23 80.1569806772 13.7450602 60.4140768361
49440 24 78.0928358724 17.0262525442 63.6047225645
49441 20 20.1777050577 40.4555635431 82.0308653408
49442 20 21.2731507371 42.8797433935 81.2045339317
49443 21 18.756553473 40.3107637898 82.6864864464
49444 21 20.1109175745 43.2798135132 80.2574425216
49445 22 20.9881346851 39.4912607928 82.7428910014
49446 22 19.9310403615 40.0249058787 80.6857616887
49447 22 21.7330863878 44.1352358288 81.6543672741
49448 22 22.1538288237 42.1863321715 80.3015933507
49449 23 20.5296956726 41.9672617436 82.2486262102
49450 24 20.4194121395 38.7290977499 79.3722745201
49451 20 5.8989995067 74.5022135643 47.0354401914
49452 20 7.4205006879 74.8873173012 49.3064016981
49453 21 4.5401361364 75.1926315098 47.2788309913
49454 21 6.5177846027 75.7626636139 50.2432037201
49455 22 5.6383973666 73.1224066121 47.3789186762
49456 22 6.1318296528 74.6560866873 45.6244844551
49457 22 7.1526492061 73.5460487846 49.665407805
49458 22 8.7615166467 75.3569811007 49.4859047516
49459 23 6.9964188779 75.2518422617 47.8493307948
49460 24 6.80686964 66.1587357855 47.242631053
49461 20 67.3895336892 87.4723614991 24.9069884755
49462 20 66.8744095019 85.358079312 26.6997740525
49463 21 66.1715507507 87.9081638576 24.0551206758
49464 21 67.6723047838 86.0457846007 27.798587168
49465 22 68.5268852404 87.6663632358 24.0916012338
49466 22 67.2719540445 88.3712798646 25.9996279582
49467 22 65.5576484372 85.6256034042 27.1847783944
49468 22 67.1990864683 83.9976351176 26.7076314034
49469 23 67.1501651046 85.9867609286 25.2746002525
49470 24 58.7565499435 79.5377465897 25.3597215545
49471 20 6.8330795179 41.6356628252 63.5514983657
49472 20 6.5037349108 39.1731316189 62.2280959686
49473 21 6.7848316414 40.9005328111 64.9046464486
49474 21 5.2953211034 38.5114304203 62.7176837652
49475 22 5.9451801516 42.7673084429 63.6923694436
49476 22 8.1788473032 41.9919562752 63.353100254
49477 22 6.6192660319 38.7476186485 60.908622247
49478 22 7.5173144765 38.6581009715 63.1180345045
49479 23 6.1660746074 40.7343124224 62.3790693549
49480 24 5.0232135565 42.056405261 61.4258043119
49481 20 87.7926420905 60.267312745 5.3045347828
49482 20 87.8677546241 58.0434018041 7.2423539629
49483 21 86.3380967643 60.4317558757 4.8089510791
49484 21 86.8265620822 57.9057110826 8.352803441
49485 22 88.3985935132 59.4324692057 4.2951645123
49486 22 88.2613704911 61.6257926017 5.2707294657
49487 22 87.5146415304 57.0257813151 6.2680330901
49488 22 89.1197860833 57.8214316396 7.8551431517
49489 23 87.6750624458 59.6527556522 6.7766188388
49490 24 32.5427434287 44.7063904115 78.602441206
49491 20 55.9867401908 75.9187816942 24.7576052674
49492 20 58.6022091211 76.7409038082 24.0207915353
49493 21 56.0668103387 74.4817283279 24.1092802734
49494 21 59.1886107063 76.6717778277 22.6435101602
49495 22 54.70131499 76.3707664541 24.4063629716
49496 22 56.2969184739 75.7859550471 26.1729573787
49497 22 59.1906685839 77.9120232605 24.6379677451
49498 22 59.0847814258 75.5182438751 24.6007388679
49499 23 57.0532820435 76.732391678 23.9152785367
49500 24 56.8361759533 75.7070073779 27.9578856047
49501 20 4.3806880359 18.08138253 21.546942002
49502 20 96.2446261445 16.1275212584 20.2689999926
49503 21 5.600728852 17.6889826815 22.4780380906
49504 21 95.1088647714 17.0544080518 19.7800669752
49505 22 3.3492881854 18.2668721365 22.5697071851
49506 22 4.7213977398 19.3234052207 20.863913708
49507 22 96.4265612351 15.2259837758 19.1987165442
49508 22 95.7291277977 15.4763900677 21.4415225433
49509 23 4.0270539251 16.9516077101 20.5513969276
49510 24 3.8345422788 18.675735006 10.0414978258
49511 20 28.4020130136 73.9029970139 50.7243729264
49512 20 28.4345648962 76.6633592374 50.6052966434
49513 21 27.299832462 73.4904860886 51.7068224159
49514 21 29.7498293226 77.0175948098 49.8323765129
49515 22 29.363696647 72.9270953169 50.9078981952
49516 22 27.7059826746 73.8671712351 49.4879626292
49517 22 27.4131092716 76.6005939696 49.6056358138
49518 22 28.2884555843 77.7503863265 51.5191813918
49519 23 28.8609197256 75.3295739122 51.2707394377
49520 24 34.8364351293 73.192935691 40.3990654482
49521 20 87.2391665474 14.4415582385 70.7792323085
49522 20 86.4761616454 15.0603246264 73.4719651899
49523 21 86.8136535771 12.8427743983 70.7044003946
49524 21 86.1256676688 16.6199152518 73.3503633298
49525 22 88.4898884482 14.4673752488 70.0495276082
49526 22 86.2786053928 15.2360860842 70.0300713106
49527 22 85.2569626884 14.2953553867 73.3841312309
49528 22 87.1169099081 14.9827800557 74.7384017925
49529 23 87.4548695392 14.7998160262 72.3213309739
49530 24 87.2509525738 17.3193130269 78.0173491793
49531 20 82.6128705511 17.1933147919 69.7480485351
49532 20 81.5896376685 15.7163198916 72.0139588877
49533 21 81.8700702658 18.4920226574 69.8920999694
49534 21 80.7483398767 16.8136363688 72.7075571895
49535 22 82.0329232184 16.4402251185 68.696660145
49536 22 83.9396403843 17.5879595978 69.2937252779
49537 22 80.5576120361 15.0774424267 71.3046458839
49538 22 82.1816516473 14.8885853841 72.9792905768
49539 23 82.647667391 16.4817568307 71.148153644
49540 24 87.7616803861 13.8099768853 65.9883061016
49541 20 83.4261063752 76.2515966312 23.0934370424
49542 20 83.7424582912 77.8275567377 20.7556880526
49543 21 81.9549109482 75.9301935611 23.585643956
49544 21 85.3367522166 77.8020203471 20.7247263482
49545 22 84.2845219674 76.3462590023 24.2477193141
49546 22 83.8401139388 75.1913219513 22.1965765545
49547 22 83.4234872583 76.744551864 19.8668719954
49548 22 83.4073983968 79.0765949204 20.200902951
49549 23 83.3434171104 77.6894918566 22.289929367
49550 24 84.7377227459 77.8416812615 25.2027616151
49551 20 6.3331742711 46.5642797536 61.2582743646
49552 20 7.3020511222 44.0241104367 60.5519546374
49553 21 5.6053029527 46.8603335129 59.9410456004
49554 21 7.2647661211 43.8017661125 59.0236998761
49555 22 6.9885989429 47.8085474018 61.6517031519
49556 22 5.3413801464 46.024273955 62.1798293842
49557 22 8.4627595845 43.3484717942 61.0302241071
49558 22 6.076014399 43.5750254135 61.0336850831
49559 23 7.3931309154 45.5441336875 60.8175143918
49560 24 8.5858206669 41.5845900439 56.4521946952
49561 20 35.1574640399 13.5738821969 62.3468916319
49562 20 37.467151062 14.9565888858 61.2672541943
49563 21 33.9913957417 13.7263522215 61.4096219105
49564 21 36.7860871057 15.8320287384 60.1806012648
49565 22 34.8977037588 14.5919703854 63.2880900289
49566 22 35.0342720016 12.2291059344 62.8413435029
49567 22 37.5183173831 15.8525139748 62.3771050172
49568 22 38.7530439623 14.5735430266 60.6815073884
49569 23 36.5325939975 13.7180271711 61.4866987818
49570 24 39.816124839 9.181024356 60.7397827413
49571 20 55.6416715279 95.5852634432 5.0890001628
49572 20 57.7045067741 95.1829483662 7.0256688022
49573 21 55.1884707494 3.4138045199 5.549394159
49574 21 58.467605216 96.4577100193 7.4319967407
49575 22 54.8767958281 94.6151612196 5.8082564572
49576 22 55.504261426 95.642790477 3.6738781597
49577 22 56.7015720482 95.0926823701 8.0667678042
49578 22 58.6901366199 94.0961083569 7.1376266994
49579 23 57.2339075756 95.4424280276 5.4734304125
49580 24 55.5028583276 3.8142927629 90.8922735036
49581 20 5.5681956774 42.6930377684 31.8114485503
49582 20 7.4307058901 40.8768672183 30.6926178977
49583 21 6.5059985762 43.8787494439 32.1127405436
49584 21 6.8370269013 39.6311029319 31.3565640537
49585 22 5.5058981091 42.0179603652 33.0929450756
49586 22 4.3981612878 43.3330377119 31.3477713038
49587 22 7.8643568311 40.4724007238 29.353220179
49588 22 8.5716400192 41.2800241544 31.5019250464
49589 23 6.2631128917 41.9732482967 30.6599724753
49590 24 96.3626734886 42.832412208 30.7151610118
49591 20 77.2204828363 58.0357315329 88.8563777464
49592 20 75.6743619555 56.9032440561 90.8221185844
49593 21 77.0656743144 57.8783038941 87.3248490888
49594 21 74.1993313929 57.06497453 90.3165354662
49595 22 78.63377707 57.9698794487 88.9605811865
49596 22 76.6407225835 59.3324750607 89.0891985385
49597 22 75.7108425135 55.6773102269 91.5417209763
49598 22 75.9787407652 58.027032323 91.6651936342
49599 23 76.3794656641 56.8721888119 89.5002128255
49600 24 72.2281652412 63.6474702953 92.6040535338
49601 20 94.2447432458 3.281984362 31.6981717406
49602 20 93.3515308137 4.8605383297 33.8684843232
49603 21 95.5892856586 4.0322145209 31.2835093978
49604 21 94.4998265323 5.8897297034 34.0100101803
49605 22 93.776201925 96.3585577334 30.4428663851
49606 22 94.5840124354 95.7941380229 32.6136466671
49607 22 92.2030480153 5.5309480923 34.2606970918
49608 22 93.7526298721 3.8202428354 34.7717055238
49609 23 93.3519985131 4.3679198406 32.3558507238
49610 24 72.4477969084 28.5971372291 11.4148037555
49611 20 70.8747365386 22.3345478957 9.3041228543
49612 20 71.2543214218 23.2192481976 6.5815039774
49613 21 69.564803886 22.9246910766 9.8357474786
49614 21 72.0051661378 22.2852523724 5.5783634637
49615 22 71.9750462924 23.1718234722 9.7118632451
49616 22 70.8815649507 21.0531449103 9.8706004425
49617 22 70.1632721173 23.8080818201 5.8815262548
49618 22 72.1976712362 24.1705489029 7.0062686286
49619 23 70.7194603173 22.3131272604 7.7650174654
49620 24 23.7522385043 22.2690699711 48.5305818309
49621 20 25.5586809056 46.8990590284 84.4182840135
49622 20 27.3737289769 45.7869632481 86.2860885842
49623 21 26.0882102362 48.0297692472 83.4970096137
49624 21 28.459914207 46.9200119642 86.583451902
49625 22 25.0085727986 47.5538382749 85.5394531633
49626 22 24.6120571949 46.1453145757 83.5964425192
49627 22 26.4413233299 45.9897577347 87.3244749292
49628 22 27.9947403223 44.5056538025 86.4304206381
49629 23 26.8118348435 45.9781587881 84.7635397562
49630 24 22.3801018233 38.4121845945 83.0791669145
49631 20 52.6140658319 67.8098084255 77.9821781798
49632 20 50.7407424076 68.034491247 75.9193429336
49633 21 53.4666819507 66.4776132785 77.9517777148
49634 21 49.7544577825 69.1775487316 76.2824647957
49635 22 52.3663721969 68.1212962671 79.3697489431
49636 22 53.4657465518 68.8250904172 77.3568639994
49637 22 51.6812860253 68.6577475498 75.0420322831
49638 22 49.9981292021 67.020331734 75.301979644
49639 23 51.2849575013 67.5210507778 77.2787581892
49640 24 52.7862727737 68.8064759786 73.560453928
49641 20 68.2736727517 42.5730260865 7.1496372216
49642 20 69.1586536734 44.6068639661 8.70827374
49643 21 68.6553155126 41.6112489132 8.3245918095
49644 21 68.7136844054 46.0175390828 8.228601172
49645 22 68.5739358062 41.9780188312 5.8773450217
49646 22 66.8994781931 42.7625379084 7.462107232
49647 22 68.0830384511 44.3593574109 9.6121871358
49648 22 70.4505331267 44.8303307689 9.1785174869
49649 23 69.1909249362 43.7311434938 7.4200891124
49650 24 68.4070606383 44.0619940931 11.554290443
49651 20 14.3069543334 67.1851490244 36.6348330998
49652 20 11.7461781782 66.721378238 37.7921086481
49653 21 14.5536190295 68.3956487714 37.5721028213
49654 21 10.9640537222 68.0183088456 38.0133304935
49655 22 14.8718417433 67.4968239457 35.3602585265
49656 22 14.9166473518 66.0516326087 37.3100975828
49657 22 10.7120198362 65.8353683776 37.3584577071
49658 22 12.2984657646 66.3758418757 39.0611643677
49659 23 12.7382903385 67.0685983185 36.6218310548
49660 24 15.9819731859 65.4503581806 38.5992643793
49661 20 29.9570201842 29.0288238323 13.4117775635
49662 20 32.4287182999 30.3710277478 12.8854285892
49663 21 29.0677364276 30.1277304878 14.1286672985
49664 21 31.6672100362 31.6060349466 12.286857464
49665 22 29.58697637 27.8008321254 14.065714951
49666 22 29.5851055722 29.1129161956 12.0022904034
49667 22 33.5172420273 31.0519046243 13.5726661783
49668 22 32.8273853212 29.615693117 11.7533433339
49669 23 31.3784523885 29.6281339227 13.8337360179
49670 24 29.6214925903 33.7691449575 80.4623884257
49671 20 53.2630456051 69.2489196695 83.3943963517