ITEM: TIMESTEP
19250000
ITEM: NUMBER OF ATOMS
4000
ITEM: BOX BOUNDS pp pp pp
3.23005382 96.76994618
3.23005382 96.76994618
3.23005382 96.76994618
ITEM: ATOMS id type x y z
49081 20 28.5297885066 33.7886012551 46.7725930939
49082 20 30.8469587201 35.2973061789 47.0963346613
49083 21 29.2188033537 32.371284806 46.3565276527
49084 21 32.1629714658 34.4169087121 47.3597429982
49085 22 28.2125947316 34.4211180072 45.5040050737
49086 22 27.3499698443 33.4148158452 47.4461738588
49087 22 30.9007441582 35.439767435 45.7053029221
49088 22 31.1111153762 36.5335293964 47.8120083778
49089 23 29.6655498796 34.4156926935 47.6567321565
49090 24 31.0595748955 36.5504601169 44.2605792846
49091 20 52.4515870388 41.9779252913 41.7279866989
49092 20 54.2741183016 40.3036547579 40.2247070888
49093 21 51.5324640565 42.7984572271 40.8625556148
49094 21 55.7036884765 40.2567912719 40.8138213309
49095 22 52.8896343548 42.8356861042 42.8139848492
49096 22 51.7599530747 40.7868818419 42.0919504201
49097 22 53.6044662122 39.139176638 40.7326287043
49098 22 54.5681141833 40.2274197457 38.8406908414
49099 23 53.7169947027 41.6842100293 40.7643387278
49100 24 53.7595553537 40.1797144006 48.2882199698
49101 20 96.6587272479 15.5146478836 77.1203016116
49102 20 4.0912961877 13.6924907805 78.9260892336
49103 21 95.9859883421 14.5364076893 76.1247565372
49104 21 4.1916439135 12.3310924791 78.2558759048
49105 22 3.6507869018 16.4320871479 76.1969693341
49106 22 95.6572891603 16.0463286318 78.0185651979
49107 22 5.1432345924 13.8072642284 79.8612075375
49108 22 96.2799842238 13.7184948705 79.4056682617
49109 23 4.2431469782 14.6494038793 77.7299010901
49110 24 10.991114813 17.971005457 76.973069821
49111 20 78.6623067371 87.5157640091 27.1664445755
49112 20 79.9164896139 89.8122619064 27.9216856664
49113 21 77.4068143019 87.5944310586 28.2137172103
49114 21 78.9938121157 90.891992884 28.5247373524
49115 22 79.6734729735 86.6971028712 27.7620130701
49116 22 78.1078022552 86.9225340118 25.9965411417
49117 22 80.5075681937 89.0815282673 28.9984233673
49118 22 80.859278189 90.6056672734 27.1835623758
49119 23 78.9881061822 89.0518761215 26.9067778343
49120 24 80.7251419834 87.3136243017 29.3825917052
49121 20 51.3604441945 33.6293028184 47.8615845207
49122 20 53.7198944394 34.9850700183 48.5132769508
49123 21 51.5423792851 32.7993233535 46.5488456714
49124 21 54.3576494255 35.1429653566 47.1259868072
49125 22 50.7471031203 34.8066894435 47.4082902024
49126 22 50.557030059 32.8939857245 48.7542357135
49127 22 53.0327503901 36.1606793854 48.8036247767
49128 22 54.800373736 34.6906064371 49.4372640075
49129 23 52.7985264996 33.742579628 48.2981351984
49130 24 56.3450915184 35.5063678384 50.2505933716
49131 20 93.1315249868 49.9803566226 33.1764761995
49132 20 94.905883205 48.3003801558 31.9525067079
49133 21 93.2562136634 51.0221104038 32.0756052063
49134 21 94.5411711647 46.9187959456 32.4704370919
49135 22 93.0407912912 50.6652557144 34.4168151722
49136 22 92.045152677 49.1403683892 32.9168094583
49137 22 94.1541030901 48.4655716057 30.7770844205
49138 22 96.3459298479 48.2560422468 31.7679525003
49139 23 94.4619428759 49.2383046565 33.0709632009
49140 24 85.7590848306 48.9619878145 32.2320039063
49141 20 17.1370037767 69.6200859624 69.4209395315
49142 20 19.2970269711 71.1251428304 70.6488376986
49143 21 17.088082413 70.0972329533 67.9352454212
49144 21 19.7480763321 72.4230088369 69.7712464284
49145 22 15.7728179865 69.384084814 69.7965021994
49146 22 17.9625868667 68.4691711268 69.356209926
49147 22 19.2868311228 71.6681419056 71.9740173536
49148 22 20.2774185829 70.0993843708 70.4017053029
49149 23 17.7993597545 70.8399396986 70.1903051462
49150 24 20.9816804325 68.7525970006 71.3229797028
49151 20 32.4459296401 24.7439484431 90.4916421447
49152 20 31.849051587 23.0200082269 88.3825046517
49153 21 33.9827900716 24.4020601365 90.4153135925
49154 21 30.4904781904 22.6537995483 87.917330767
49155 22 31.9275315567 23.9325834168 91.5751147179
49156 22 32.2764353552 26.1063569753 90.8583185227
49157 22 32.6629421904 23.0611657796 87.186503588
49158 22 32.1380898544 21.8804117183 89.2369915684
49159 23 31.8009720823 24.4535070773 89.1022941234
49160 24 34.0242282439 23.6827383643 86.099382959
49161 20 27.2430537473 77.5137303988 44.3937800913
49162 20 25.3397975574 79.6586001307 44.634738854
49163 21 26.7176401719 76.5952621958 45.5431982886
49164 21 24.0342612798 78.9458261509 45.2949434143
49165 22 28.330454996 78.1969457726 44.9237771214
49166 22 27.5994407372 76.5697258052 43.3784045597
49167 22 26.0738050928 80.1816752087 45.7278460361
49168 22 24.8786458881 80.615980929 43.7093486989
49169 23 26.0220775323 78.4794362476 43.941234092
49170 24 90.2403004539 39.3492672362 30.9247839106
49171 20 74.5612372364 88.7293505726 46.5590415196
49172 20 71.8698139135 87.8037733377 46.2047124074
49173 21 75.3448209147 88.6571377757 45.3037361642
49174 21 71.668703145 87.2698476321 44.7854316206
49175 22 75.5246045878 88.5994236621 47.5538382749
49176 22 74.0224474564 90.0022414278 46.4243440746
49177 22 71.0348768343 86.9093448869 46.953218626
49178 22 71.4061366671 89.1321333491 46.1064955204
49179 23 73.4534442912 87.6388625075 46.4556799386
49180 24 72.3496735613 90.5332673968 47.1784626868
49181 20 91.1772895557 20.5921803207 76.4427921712
49182 20 91.0412825522 20.1210198829 73.6125556481
49183 21 92.7313613273 20.8936593938 76.4404536739
49184 21 92.3890988612 20.5981668738 73.0740464878
49185 22 91.0351089193 19.2445510915 76.8737304553
49186 22 90.5728347712 21.5379621724 77.3116842314
49187 22 91.128368192 18.7338232792 73.8834471764
49188 22 90.0494790735 20.5139809707 72.5949351591
49189 23 90.7985465315 20.9915956611 74.948305311
49190 24 91.010133768 18.3838905419 83.4696024252
49191 20 93.3784703027 92.3744130981 38.5531492123
49192 20 92.4959214183 94.9297358776 37.7257888644
49193 21 92.7114373303 91.8632175863 39.8599015086
49194 21 91.0890814372 95.2039013021 38.4674666709
49195 22 94.7343310424 91.8927761923 38.7149732261
49196 22 92.5722499704 91.7862342549 37.5041928594
49197 22 93.0658599824 96.2770844871 37.8520677191
49198 22 92.0533841875 94.5308817765 36.4263326797
49199 23 93.2587392404 93.9140797263 38.5942132251
49200 24 90.4743372646 91.8150445418 30.0303554598
49201 20 41.23166403 61.0141352456 73.0640377193
49202 20 41.0599247877 62.9431149058 75.0644818573
49203 21 39.9667240657 60.0962282819 73.230258108
49204 21 41.9791413099 64.0711124678 74.554595904
49205 22 42.2898808323 60.2023960597 72.613268978
49206 22 40.7523656216 61.993123759 72.1204072852
49207 22 39.7716933901 63.3354212144 74.5022135643
49208 22 41.0571185909 63.1022262627 76.4671125432
49209 23 41.572336318 61.5762164588 74.4910823171
49210 24 40.4739909019 62.3928197191 78.0499946017
49211 20 37.6380484454 68.2110945638 72.3484575427
49212 20 39.7675776348 66.5225124269 72.6698606129
49213 21 38.682047184 69.3115913974 72.9731169439
49214 21 40.8289747934 67.5713752399 73.1399921119
49215 22 36.9991709805 67.5841902052 73.4839382961
49216 22 36.8506296315 68.8341637868 71.3733041649
49217 22 39.2517986684 66.0170228486 73.9125380829
49218 22 40.506916944 65.556058259 71.903301195
49219 23 38.7000068433 67.2373442843 71.7948884597
49220 24 35.804760095 66.1645352588 73.9636108641
49221 20 93.767502715 57.940975622 7.5199897174
49222 20 91.1134018092 57.0187658232 7.000637527
49223 21 94.4482860516 57.2558894503 8.6653856993
49224 21 90.7934953773 55.7520486009 7.9165520911
49225 22 94.2479236022 59.2810281199 7.5416816184
49226 22 94.1809490392 57.2195024322 6.3805335186
49227 22 89.8616509696 57.6475409797 6.8985293805
49228 22 91.6321740522 56.5098152689 5.8229235123
49229 23 92.19023305 57.8523933439 7.7863258529
49230 24 90.2317883237 56.3339602712 4.4036333715
49231 20 86.4150800957 86.5847614605 24.3368628316
49232 20 87.9621363755 88.7398270405 25.2398034125
49233 21 87.2240130848 85.3837092426 24.8922091725
49234 21 88.8478656162 87.8308063666 26.1263745123
49235 22 85.8808737704 86.0464393799 23.1282338824
49236 22 85.4782780737 86.9153314401 25.3558864189
49237 22 88.8852815732 89.7354656548 24.8413234711
49238 22 86.9795933461 89.1743198406 26.1914782774
49239 23 87.5550507639 87.720055134 24.1332264859
49240 24 56.0406191688 78.4689597796 38.266636522
49241 20 67.5087970519 85.7547819955 45.8421517846
49242 20 67.9270139107 88.2855973232 44.8808423108
49243 21 68.6235119492 85.2347937339 44.9396789031
49244 21 69.0234885289 87.8932910147 43.8078462055
49245 22 66.4400102418 84.780189857 45.9511257592
49246 22 68.079671015 86.0215577686 47.1052209511
49247 22 67.3121761982 89.4539105788 44.3332597809
49248 22 68.6333336379 88.6812710679 46.0296057289
49249 23 67.030808202 87.0307596672 45.0704476726
49250 24 69.5156954425 90.135068075 46.7243265094
49251 20 45.6640518295 49.3393277402 66.4078325188
49252 20 46.5708275461 51.8500319911 67.2461370342
49253 21 46.0075303143 49.3622450139 64.9339244349
49254 21 47.5097809856 52.4875998974 66.0873648476
49255 22 44.2457064417 49.6162058216 66.5048333872
49256 22 46.0654315076 48.0077873725 66.6948129086
49257 22 45.3191702464 52.3564569683 67.0129420825
49258 22 47.0911899673 52.475813871 68.4608460764
49259 23 46.6750309862 50.3159777564 67.128931549
49260 24 43.9371183368 53.5193449101 67.2344445476
49261 20 42.3552652171 9.5664554825 61.784623339
49262 20 40.2649292425 10.3370651777 60.1355150366
49263 21 41.7340667919 8.4043532757 62.5027290926
49264 21 39.1747217971 9.1786297347 60.2338254635
49265 22 42.1756686237 10.626196985 62.6989757868
49266 22 43.7607956397 9.3188647414 61.7116622229
49267 22 39.7608427626 11.3081121543 61.0202153386
49268 22 40.2637132239 10.782558269 58.766558712
49269 23 41.6003047458 9.5803087405 60.4746906863
49270 24 34.6390659564 15.6406461186 67.8749121906
49271 20 9.5429863235 20.5105199947 82.9663578043
49272 20 7.0065492482 21.8367285886 83.33509206
49273 21 9.5419386767 19.2424932139 83.9387985253
49274 21 6.3405077987 21.6719112982 84.6897367811
49275 22 10.8811118996 20.9772840576 82.9545717779
49276 22 9.1260790232 20.0377693787 81.6663403803
49277 22 6.8201148888 23.2181257189 82.9382022967
49278 22 6.3283476127 20.9395874809 82.4789214252
49279 23 8.5677768217 21.588660794 83.6023355325
49280 24 9.4707922345 19.0954485031 80.0972086859
49281 20 30.2053685984 76.2443005196 93.0190900362
49282 20 28.8488530794 77.6511405007 94.9799667998
49283 21 29.2491102788 76.3391499705 91.7656554786
49284 21 30.157102014 78.3106902818 95.4052926903
49285 22 30.8159970158 74.9398867207 93.0280698659
49286 22 31.0932492567 77.3034527208 92.7890754409
49287 22 28.3143661345 78.525083715 94.0201539643
49288 22 28.2150267688 77.4543325672 96.2251698469
49289 23 29.3795984287 76.3258673058 94.2940387691
49290 24 27.9492799346 80.1330344647 93.1512619041
49291 20 23.2965121487 16.9139111334 50.6625430576
49292 20 24.6586400613 18.6526306526 52.4145452415
49293 21 21.8161498122 16.8429143551 51.1749545879
49294 21 26.153594621 18.415974725 52.1429989339
49295 22 23.6184764582 15.5745134147 50.2854837515
49296 22 23.2543256573 17.8603477643 49.5988074016
49297 22 24.2464097556 19.8604177428 51.7350714634
49298 22 24.6296426946 18.8277373311 53.8274653156
49299 23 24.0299584447 17.320154886 51.9957671434
49300 24 25.3000431032 15.0771618071 49.5178953948
49301 20 62.5605367461 34.8848887935 74.8194073393
49302 20 60.8036704878 32.9984697843 73.5694337577
49303 21 64.074386364 34.6704953602 74.4311232461
49304 21 59.4994437686 33.3976980449 74.21046264
49305 22 62.5615656849 35.2124654966 76.2217574056
49306 22 62.0969530395 35.9735060608 74.027124451
49307 22 60.7905749028 33.704415352 72.3613660479
49308 22 60.8021738495 31.6224044278 73.3457798751
49309 23 61.8808758882 33.4521382623 74.6040785071
49310 24 60.5936734294 34.9606561063 71.1725675559
49311 20 57.8598765353 91.984258207 7.1213320501
49312 20 55.3540363589 93.1307766677 6.9070134488
49313 21 57.6693357746 91.5736180796 8.5809940085
49314 21 55.5388711862 94.2459592644 5.7729919177
49315 22 58.6216654187 93.1779207734 7.2654396083
49316 22 58.5874298181 90.8879706686 6.5110871464
49317 22 54.0240861693 92.5528872127 6.7232449762
49318 22 55.5040743462 93.8384994933 8.1327695522
49319 23 56.4337673364 92.0595578204 6.5770701865
49320 24 60.1486106216 92.4241763208 95.3668477946
49321 20 76.0167179615 90.6330744619 25.0277484765
49322 20 73.8346193525 92.0536648072 26.0779208481
49323 21 76.4532686392 91.5115075911 23.7208091005
49324 21 73.6344439829 93.1358278219 24.9792948123
49325 22 76.4110821477 89.3034984319 24.6895082258
49326 22 76.7815936613 91.1833696487 26.0896133346
49327 22 72.4910123387 91.7251527052 26.4695723774
49328 22 74.6662825355 92.7670000263 27.0455910345
49329 23 74.5197990641 91.0601776104 25.160294504
49330 24 89.0516890417 32.8556343687 38.130255359
49331 20 10.7794620986 25.2770322897 90.2869768602
49332 20 10.5902776663 27.6443398855 88.7173774664
49333 21 12.2805061053 25.1974298413 90.8687014508
49334 21 11.8411679388 28.4080931066 89.0910693364
49335 22 10.7880116448 24.5268423529 89.1002362458
49336 22 9.9489494563 24.7951147642 91.3354655136
49337 22 10.9385547475 26.8359681357 87.5765649391
49338 22 9.7160631863 28.747549376 88.5592015084
49339 23 10.3763051625 26.8059418303 90.08726919
49340 24 34.9425093672 73.778588957 45.5769661897
49341 20 86.529572924 52.0952935888 34.9871278959
49342 20 87.7797335854 49.7021689827 34.296148711
49343 21 86.0293215796 51.4020694466 36.2944414315
49344 21 87.9305198918 48.8392634757 35.5512669867
49345 22 85.4313210478 51.9951123641 34.1042048519
49346 22 86.7616453969 53.4548959243 35.3308870003
49347 22 86.5035688339 49.2444782894 33.8450058102
49348 22 88.9112856632 49.3136042698 33.5250993783
49349 23 87.7729051732 51.2851445811 34.6301796666
49350 24 87.6812360787 49.4228588641 29.8986512914
49351 20 57.3023787768 58.4695695537 23.7427909752
49352 20 55.7524227604 56.4041151905 22.5242467974
49353 21 56.6336620864 59.3861669589 24.9173714035
49354 21 56.4850271974 55.1089618409 22.976512177
49355 22 57.4198648817 59.3562341934 22.6163835914
49356 22 58.470224333 57.8822325696 24.2651177341
49357 22 54.3533465904 56.0906630112 22.5408033584
49358 22 56.3093592796 56.6393680198 21.2267549505
49359 23 56.1963630896 57.3531709384 23.6842350026
49360 24 48.0456710289 62.5195662732 21.1418207282
49361 20 28.625012117 6.6840049914 25.247193064
49362 20 27.1773887429 8.2895424118 27.009578176
49363 21 29.3711798384 5.8653999774 26.3397390068
49364 21 25.9917706072 8.4516189833 26.1270292915
49365 22 29.6395457896 6.922438177 24.2914024439
49366 22 27.5168450122 5.9557782214 24.7673334162
49367 22 26.7690871127 7.2191092996 27.9357166502
49368 22 27.4070291786 9.5361953273 27.6983124034
49369 23 28.2416856381 7.9726479645 25.953699871
49370 24 27.0759914995 93.1262867529 25.3694497033
49371 20 96.5466664569 19.522177492 77.3201963616
49372 20 5.4565838778 19.1301518031 78.7807282409
49373 21 96.0531499848 21.0778394418 77.2900765162
49374 21 6.1815741676 19.9857611985 77.7182086035
49375 22 95.2531968253 18.8920927771 77.5728476108
49376 22 3.5837880185 19.2595174743 76.0059608739
49377 22 5.999554891 19.6645452082 80.0286439448
49378 22 5.7938700217 17.7503448509 78.5027276808
49379 23 3.9753375894 19.5739985924 78.5722278208
49380 24 6.2069515404 19.2296782486 81.86642221
49381 20 96.0841116892 53.8808765941 60.5213670926
49382 20 4.4865845481 55.3073599526 58.9791748873
49383 21 94.7026210189 53.8554337434 59.9037231834
49384 21 5.3883184644 56.3852201323 59.7247813693
49385 22 95.9514721218 53.9468222182 61.9082830767
49386 22 96.7328108427 52.703489969 60.1243837895
49387 22 5.4097858697 54.2177137465 58.8604727639
49388 22 4.1274708703 55.9184560694 57.7371521965
49389 23 96.7038134761 55.159286303 59.8947433537
49390 24 8.4240434231 46.5730725035 60.7114401539
49391 20 26.7784411019 19.6170269429 48.0892606187
49392 20 27.5428491023 17.0471119402 49.0448641591
49393 21 26.8593531088 19.2781319128 46.4915057173
49394 21 27.934126472 16.902125107 50.5593685563
49395 22 27.2202300136 21.0119873576 48.2210583271
49396 22 25.4317472716 19.4685791337 48.5114996929
49397 22 26.1681868442 16.6847383972 48.9831278301
49398 22 28.3742316656 16.1081585007 48.3355511553
49399 23 27.8239364788 18.566293332 48.6996084164
49400 24 28.151419642 14.1609385614 46.8864311429
49401 20 26.4712560954 82.4610553058 3.3605419698
49402 20 25.6097536868 81.6738235717 94.3930039752
49403 21 27.7378797779 83.5475211555 96.4974644735
49404 21 24.152215084 81.0064164397 94.5789612812
49405 22 26.9376459987 81.8010378253 4.5481805672
49406 22 25.3180027625 83.1989915166 3.565288634
49407 22 25.3933023759 83.0411897182 94.0608438174
49408 22 26.2072865192 80.9570273765 93.3141148567
49409 23 26.3524604321 81.4058317801 95.7508290527
49410 24 30.4430534649 74.1214126625 94.653044876
49411 20 32.3306884928 37.7381361302 40.2668000404
49412 20 32.8714426105 35.4622170092 41.8784923857
49413 21 33.5591478991 38.3612988931 39.569273063
49414 21 34.3299166122 35.3348156758 42.1498516135
49415 22 32.1672743008 38.5413631859 41.4296879822
49416 22 31.2595631853 37.8839648224 39.2958559577
49417 22 32.3502383303 36.1487998191 43.047086261
49418 22 32.3681044497 34.1216968118 41.9012225796
49419 23 32.6742605174 36.1756457682 40.4826901119
49420 24 32.0152719757 34.933997237 39.0070047701
49421 20 28.8322965185 12.4247165573 49.308272496
49422 20 26.7997681974 13.0580096906 51.3129259291
49423 21 30.0773124858 13.4816518631 49.4266004598
49424 21 25.7387451984 12.1404675324 50.6829347541
49425 22 28.017564056 13.0698892569 48.3572524104
49426 22 29.4195399627 11.1799812097 48.8821047464
49427 22 26.7194174299 12.9963669015 52.7238816655
49428 22 26.4782715874 14.3419382531 50.7535573728
49429 23 28.1503907032 12.3955134029 50.7214731898
49430 24 21.4158926128 14.7055278147 54.5052553756
49431 20 89.45288164 13.9203539582 56.0713937934
49432 20 87.1851004896 12.4947124588 55.3762988533
49433 21 90.3727529415 12.8220085422 56.6139251691
49434 21 87.525398618 11.1567739624 56.1459450876
49435 22 88.8392599461 14.4249081376 57.2800227426
49436 22 90.2163542414 14.8536950042 55.3857463824
49437 22 86.3282750756 13.1871882819 56.2219930201
49438 22 86.5899061545 11.9473918406 54.1809525688
49439 23 88.5374067135 13.1344317826 55.0409583392
49440 24 83.7265565095 18.6904207691 57.8402331579
49441 20 24.5079472947 38.1165049948 83.6803478027
49442 20 26.1701511819 40.1278933002 82.6307366705
49443 21 23.1599439059 38.6783055883 84.128497427
49444 21 24.9640478098 40.8489923304 82.104574776
49445 22 24.872659335 37.0906529953 84.5558811952
49446 22 24.2428552397 37.6701326284 82.3437562807
49447 22 27.0444685558 41.1216611166 83.1624174187
49448 22 26.6899523638 39.3326171354 81.5865508521
49449 23 25.5745826873 39.2715355856 83.7804354875
49450 24 23.653460378 35.8519977406 81.2709472553
49451 20 9.9073803281 79.9608275229 42.602116993
49452 20 8.4292629491 79.1570392278 44.8728914199
49453 21 9.1711839593 80.3994360782 41.2835786703
49454 21 6.8979962032 79.2219559131 44.9017952467
49455 22 10.3486173544 78.6192783867 42.4400123596
49456 22 11.0323378436 80.7954839824 42.7901321767
49457 22 8.6792950813 77.7817221905 44.6839408374
49458 22 8.9719814045 79.5669310362 46.1677641499
49459 23 8.8298568921 80.1765305147 43.7064489622
49460 24 9.2745174784 70.5675515321 40.4523831868
49461 20 63.5690838655 78.8468609448 23.6995755449
49462 20 64.0994550552 76.5266974547 22.1595347571
49463 21 63.1000748452 79.8306199927 22.6194704078
49464 21 64.9360758525 75.4857855325 22.83479924
49465 22 64.3292825707 79.6494332212 24.6717356462
49466 22 62.353813584 78.3056391276 24.2500578115
49467 22 62.7042140207 76.0844408436 22.2444689794
49468 22 64.6851083212 76.5165016064 20.8324843042
49469 23 64.4517262898 77.8225055835 22.8840012234
49470 24 53.7658225265 76.5289424121 20.1818208129
49471 20 6.3132035041 47.7048116611 65.6543686859
49472 20 8.2399475609 47.6726339382 63.7269792038
49473 21 6.9885615269 46.954995884 66.9436290223
49474 21 9.5078995098 47.1089625468 64.4532229281
49475 22 4.9780712045 47.2731250579 65.6950585391
49476 22 6.5785668247 49.0647881562 65.9077682543
49477 22 8.3874038472 47.1039113926 62.4195721283
49478 22 8.4191887027 49.1006139349 63.7734685303
49479 23 7.0616816608 46.9877348463 64.5195427118
49480 24 5.5846025745 46.0473783084 63.6962981191
49481 20 86.5937412901 57.0982747317 3.99011128
49482 20 87.61931267 54.5983275685 4.9178876377
49483 21 85.1829726336 57.4962869737 3.8511895734
49484 21 86.9174828576 54.6302246718 6.3131006102
49485 22 87.1938932395 57.694123846 96.3518228611
49486 22 87.1120458337 57.6804670218 5.1788732914
49487 22 87.6571963264 53.2397541719 4.5207733787
49488 22 88.9133435409 55.1319726544 5.1487066761
49489 23 86.705053762 55.4841503492 4.0077688054
49490 24 35.7399369496 35.9148565483 78.5650252491
49491 20 49.7101198736 74.5753617601 18.3395526329
49492 20 52.4366206561 74.7857329781 17.9474334041
49493 21 49.5002163551 73.3857214091 17.3020081468
49494 21 52.910306671 74.8080890123 16.4717480623
49495 22 48.5428355568 75.4630553386 18.2878250724
49496 22 49.7871967449 73.879424961 19.5864393981
49497 22 53.2588363099 75.7187934044 18.6812538597
49498 22 52.5655186277 73.4175249725 18.3229025321
49499 23 50.9752469177 75.3828916509 17.9261998486
49500 24 49.7232154585 73.6453881503 21.5551735126
49501 20 5.6348989746 15.179775069 30.8013112527
49502 20 7.3617202195 13.2077670582 29.7885548381
49503 21 6.7045744137 15.9496083831 31.6468183397
49504 21 6.2630099979 12.0861676249 29.6389845502
49505 22 4.9829820488 14.3178049609 31.6731965894
49506 22 4.8923231852 16.2847618174 30.1872218593
49507 22 8.1722995108 12.9413654448 28.6114488326
49508 22 7.997464098 12.8451128956 30.983526963
49509 23 6.5649661244 14.5769104627 29.6913668899
49510 24 10.7068751421 18.1998975736 20.6845041945
49511 20 34.3289812132 75.7158936677 51.3916865185
49512 20 35.5458416729 78.2946949602 51.4074947603
49513 21 32.983971101 75.8315089746 52.1162465247
49514 21 37.0634328866 78.3280887017 50.9809528512
49515 22 34.8274552996 74.3849145393 51.5927037472
49516 22 34.0565930467 75.919810633 50.0150599227
49517 22 34.7277417744 78.5566066588 50.2826775547
49518 22 35.4392061957 79.3883633816 52.3766615851
49519 23 35.2496943737 76.9111464123 52.0159717601
49520 24 41.7420176828 72.8944498944 43.8114942613
49521 20 89.4273452494 17.1659076035 67.0096681863
49522 20 88.6395522759 19.1907656534 68.905254105
49523 21 88.3627677344 16.1480064948 67.60607854
49524 21 89.1676785082 20.581516773 68.4812377729
49525 22 90.5699350346 16.4148758077 66.6512233188
49526 22 88.7852874282 17.8857906151 65.9318080066
49527 22 87.3136243017 19.0597162642 68.4245525981
49528 22 88.7951091169 19.2133087674 70.305172134
49529 23 89.6004875901 18.0791375726 68.2752629299
49530 24 89.6933727033 22.481124907 74.3196236944
49531 20 87.8390378771 20.4399909158 63.6411095826
49532 20 85.5315022725 20.6238903442 65.2922757626
49533 21 87.6003240718 21.7118528323 62.6482771651
49534 21 84.8088130641 21.8283099983 64.7033486003
49535 22 87.3273746659 19.3921570416 62.8780111407
49536 22 89.2640245973 20.3020195746 63.8700016992
49537 22 84.8926248077 19.5341505982 64.6487213031
49538 22 85.2087896438 20.5344662071 66.6864878582
49539 23 87.1039078631 20.8842118647 64.9846230566
49540 24 90.0280584381 13.5913741568 64.8314047129
49541 20 76.3239965079 80.7400148262 19.7628556351
49542 20 75.1233184496 81.6080650273 17.294899115
49543 21 75.2227513552 81.2212775724 20.830052267
49544 21 76.3116492421 81.4648554521 16.3452821278
49545 22 77.3301115901 81.7562322168 19.6632356497
49546 22 76.8237801528 79.5332566749 20.2187690704
49547 22 74.0337657834 81.4168694874 16.4857790461
49548 22 75.1821550419 82.9409149536 17.7131159738
49549 23 75.4695095912 80.5328239647 18.3882869168
49550 24 78.2370743865 79.0673344711 21.3750156799
49551 20 96.7322496033 50.1923180187 63.6689844705
49552 20 4.6983401564 48.6219703057 62.0502766333
49553 21 95.5472862469 49.3738439605 64.1316327782
49554 21 4.6451720816 48.34883382 60.5038751328
49555 22 96.1987915972 51.5507978754 63.5021093026
49556 22 4.2086588199 49.9961648644 64.7123284299
49557 22 5.8849778769 49.2878807994 62.310317534
49558 22 4.7873901339 47.3111022542 62.6043134157
49559 23 3.5005796073 49.4754282836 62.3413727783
49560 24 6.1826311683 47.2576909757 58.7851731505
49561 20 35.1757043189 13.4867965572 65.5945966947
49562 20 35.6275955389 16.1722333269 64.8654532337
49563 21 33.8828894666 13.3731455879 64.7366488019
49564 21 34.2291741481 16.2674569373 64.3302179696
49565 22 34.7929390793 14.0447620151 66.8474700129
49566 22 35.7751079491 12.189473082 65.6818694142
49567 22 35.5791418746 16.6111225019 66.2238395506
49568 22 36.4295130361 16.9218620243 63.9242548368
49569 23 36.0252336213 14.6463170629 64.7864120247
49570 24 39.0999834231 12.8321108505 61.4025128787
49571 20 58.1057929123 96.7092387898 8.16948396
49572 20 59.975281201 95.9867366612 10.0764910995
49573 21 58.3417940608 4.7263366462 8.1492793433
49574 21 61.4728548777 96.483994729 9.8039719771
49575 22 57.0049219191 96.4003700653 9.0074610857
49576 22 57.8327499665 96.4894200428 6.80858142
49577 22 59.3956144881 3.3315446032 11.0515696455
49578 22 60.1432788477 94.6749332108 10.5398316023
49579 23 59.3915922727 96.0223753602 8.6410559733
49580 24 51.2429580897 96.3868067809 93.956079138
49581 20 7.3305059574 49.0838702942 31.0022349415
49582 20 9.6335610012 48.6167320718 29.6299111806
49583 21 7.1233431578 50.422332614 30.2366109225
49584 21 10.3035872502 47.2639581485 29.9106243976
49585 22 8.0138522871 49.3097691343 32.2106768109
49586 22 6.0127440158 48.5327332484 31.1393644237
49587 22 9.8634727027 48.7592868677 28.2354184653
49588 22 10.3557450942 49.566349059 30.4467015207
49589 23 8.1495880249 48.3377025729 29.935506009
49590 24 4.5092960339 47.8272553802 31.9162132297
49591 20 79.1802371211 57.8522062641 84.6598975555
49592 20 78.6356478678 55.0284239936 84.7384710651
49593 21 78.9492871269 58.3629340764 83.2154545377
49594 21 77.6730288355 54.3774798826 83.6854924968
49595 22 80.5407748555 57.5036766252 84.7464219559
49596 22 78.7692228341 58.9562576137 85.521493504
49597 22 79.9220084675 54.6932705592 84.197155708
49598 22 78.304423109 54.410218845 85.9384008042
49599 23 78.2664459127 56.5439573296 84.7349165491
49600 24 73.1057565113 59.7600459087 89.8619315893
49601 20 92.700399623 93.1065498356 31.8955409135
49602 20 92.7089117532 95.8268769852 32.3559442637
49603 21 94.0700107269 92.3938693957 31.7559793941
49604 21 94.1230478459 96.3009371597 32.7706066065
49605 22 91.7985815207 92.3155765058 31.1549855857
49606 22 92.4270760575 92.9658658375 33.3105188652
49607 22 92.2436443286 3.4515207399 31.6371837308
49608 22 91.992115558 95.5738515764 33.547923112
49609 23 92.9139511972 94.5428548828 31.4763886558
49610 24 72.5500360108 25.1314842172 9.0901690585
49611 20 75.5113219231 21.4139282751 11.430883263
49612 20 74.2146719352 18.9415753801 11.3348552095
49613 21 74.4197113793 22.3262228453 12.0503979701
49614 21 75.0998399366 17.7521221089 11.1133995143
49615 22 75.2198516185 21.5838902595 10.0550798182
49616 22 76.8261186501 21.8124082166 11.8532532929
49617 22 73.1603838084 18.5438437578 12.198191
49618 22 73.7068438596 19.3924376613 10.0502157438
49619 23 75.1804713238 19.9731333131 11.9890919246
49620 24 19.7151502899 22.2373599475 52.6509205495
49621 20 30.9057953124 42.9795504587 85.1151562116
49622 20 33.668776653 42.4141953493 84.793285442
49623 21 30.6723197411 44.5074310605 85.3809965857
49624 21 34.5368268541 43.7006494889 85.0431304945
49625 22 30.9437725087 42.3802403683 86.4432356033
49626 22 29.8413113374 42.5913599054 84.2845219674
49627 22 33.7118985433 41.5848706636 85.9760973809
49628 22 34.299609687 41.9229238346 83.6035515511
49629 23 32.3380781442 43.0858117764 84.4287604815
49630 24 25.6152725404 35.6592120225 85.3418033708
49631 20 50.554410942 66.2674291404 78.2286557962
49632 20 49.1794680642 64.9074526454 76.0777995112
49633 21 51.7763225559 65.4941348503 78.8233824318
49634 21 47.7082726372 64.5603261048 76.2741397453
49635 22 49.909640464 66.9761809048 79.3458027306
49636 22 51.1077929452 67.1956254923 77.3530288638
49637 22 49.2709500789 66.1923166068 75.4364900092
49638 22 49.8111429573 63.8984378265 75.381020853
49639 23 49.6919731344 65.1044476587 77.5766827464
49640 24 50.2707044485 67.0363270556 74.0293694084
49641 20 67.2223779015 35.7762304278 4.4004436612
49642 20 69.7150289531 34.7688057871 4.7581963335
49643 21 66.5913577877 35.5459352128 5.8049825609
49644 21 70.6890598523 35.2548390678 3.5219123151
49645 22 66.181746599 35.529285112 3.4801364638
49646 22 67.7777242425 37.1018777824 4.5256655151
49647 22 69.7861192713 35.7045788703 5.8043464897
49648 22 70.3120940861 33.4698173019 5.0504430192
49649 23 68.2660960205 34.6503842834 4.2484226281
49650 24 70.2320239382 36.5285717821 7.4357570443
49651 20 19.954051175 68.2883585148 36.6984402266
49652 20 19.5163780187 70.8617344936 35.6446197993
49653 21 21.306263859 67.4291010636 36.2860228412
49654 21 20.9137704706 71.4207288903 35.7573353696
49655 22 18.986006829 67.3069379642 36.949220678
49656 22 20.4753489952 69.0252657869 37.8201706158
49657 22 18.8737589582 71.4987411605 34.5208315325
49658 22 18.7976174858 71.1469376254 36.8148973926
49659 23 19.6439664319 69.2989635119 35.481486227
49660 24 20.8647555671 69.411866162 39.438971993
49661 20 26.953080081 22.1018206435 26.579388211
49662 20 29.3977451678 20.8800961094 25.6507241596
49663 21 26.3663978761 21.7245742576 25.1057607468
49664 21 29.0613757149 19.662113171 24.908298034
49665 22 27.3303264669 23.4642291757 26.53682756
49666 22 25.894582659 21.9307361804 27.513571116
49667 22 29.5084964004 21.9657201001 24.7036327495
49668 22 30.6433223745 20.559815518 26.2088766974
49669 23 28.1669472641 21.1056207899 26.7096892811
49670 24 29.7869646599 29.7756463329 84.9907481548
49671 20 49.9520140352 69.3406823039 83.5942911017