ITEM: TIMESTEP
19750000
ITEM: NUMBER OF ATOMS
4000
ITEM: BOX BOUNDS pp pp pp
3.23005382 96.76994618
3.23005382 96.76994618
3.23005382 96.76994618
ITEM: ATOMS id type x y z
49081 20 27.3570788761 40.7279517097 54.7368601491
49082 20 29.608771165 42.379679129 54.165144327
49083 21 27.8305778112 39.3217665078 54.5869157016
49084 21 30.8775462649 41.5991822671 53.9695524121
49085 22 26.7951847427 41.1850811637 53.4974565753
49086 22 26.4521739574 40.7299160474 55.8150009484
49087 22 28.9982362875 42.5346747306 52.8828059426
49088 22 30.0139859787 43.6303074898 54.7522006914
49089 23 28.7427788415 41.4414740086 55.0797773945
49090 24 29.2029951119 45.7419705599 50.1248757563
49091 20 59.8740710375 45.5655543229 41.5416552333
49092 20 59.5321827309 45.4450749415 38.6862564792
49093 21 60.8170466924 46.7093601266 41.8644614019
49094 21 59.6622031813 44.1969721578 37.7190539921
49095 22 60.1420628291 44.5784278388 42.5320556136
49096 22 58.5490784622 46.2113537397 41.5539089592
49097 22 58.1135567234 45.462005662 38.9949381239
49098 22 60.1209228134 46.5120844937 37.8745172933
49099 23 60.3034191434 45.1191819565 40.0108748949
49100 24 55.9171465109 47.0430169227 44.9867294689
49101 20 11.3060729846 10.432344912 80.9275623104
49102 20 13.2664165708 9.9631675199 82.8741274704
49103 21 11.7152538897 9.5158036307 79.7590619751
49104 21 14.2412893289 9.030649625 82.1956826311
49105 22 10.9875696511 11.6509452137 80.2432244579
49106 22 10.2719333506 9.7981257339 81.6243409686
49107 22 14.0413010391 10.7736532713 83.7780969902
49108 22 12.3357133498 9.0831161506 83.431531689
49109 23 12.6741219723 10.7758421048 81.6453874444
49110 24 16.3609968297 15.42223047 79.0445107373
49111 20 82.4603069866 82.3460947781 22.5696136452
49112 20 84.0916427094 84.305755523 23.8351148489
49113 21 81.0099709556 82.3197165284 23.2513323807
49114 21 83.2916895499 84.8535251327 24.9304669885
49115 22 83.1462350173 81.3391378368 23.2323437826
49116 22 82.2052237002 82.1073809728 21.1849426186
49117 22 84.9108650867 83.3262057702 24.4662285027
49118 22 84.8944020656 85.4460068109 23.3235451776
49119 23 83.0204238621 83.7519993602 22.8058954133
49120 24 84.3904091256 81.1314792758 24.5747347778
49121 20 50.0437766696 51.0207073054 48.307115028
49122 20 49.9735282104 50.2396492042 45.675837856
49123 21 49.23521784 52.3891023907 48.4678165631
49124 21 48.9332710675 51.1410931469 44.8782231938
49125 22 51.1540951919 51.1066704665 49.1783455855
49126 22 49.128395283 49.9387313705 48.6239346435
49127 22 51.006302162 49.9223618893 44.7637303656
49128 22 49.3231453389 49.049260534 46.1124820735
49129 23 50.5733995401 51.0142530528 46.8434027924
49130 24 49.2414850128 48.3142240599 47.7974161546
49131 20 86.2742090178 44.2534702527 21.3649133715
49132 20 87.1252349585 41.9420059726 22.7184356139
49133 21 86.1882458567 43.4836369386 19.9774361481
49134 21 86.705989161 42.194563682 24.2242408012
49135 22 86.7177751874 45.539363153 21.0323790542
49136 22 84.9372433363 44.1465541558 21.7751793394
49137 22 86.0817039193 41.1612284911 22.1351208452
49138 22 88.3968162553 41.2174459664 22.7885905332
49139 23 87.3411250301 43.3785916395 22.1694499857
49140 24 79.4443002373 44.1181180285 23.9901104506
49141 20 12.5316420083 69.1302175461 69.4858562168
49142 20 11.9682886526 71.9713046967 69.2448974541
49143 21 11.3276619918 68.6560638317 68.6529770153
49144 21 11.3421793831 71.6202494807 67.8379639331
49145 22 12.5035987486 68.178729761 70.5232136231
49146 22 13.6788339562 69.0753096293 68.594140423
49147 22 11.0040887961 72.9024943252 69.7130646154
49148 22 13.2487375311 72.5006469476 68.8955259562
49149 23 12.0842032872 70.5562332051 69.9970517286
49150 24 14.5197575885 72.3730585344 70.2967535437
49151 20 32.1998261833 38.2657011231 90.3813586116
49152 20 31.2525476934 40.7264550714 89.3215516311
49153 21 30.9258128494 37.4736988545 90.6587979323
49154 21 32.5378793543 41.6698984258 89.233062893
49155 22 32.5871748776 38.7970077117 91.6473275148
49156 22 33.1049181818 37.2358269082 89.8872809001
49157 22 30.3655088942 40.8663907504 88.1928992899
49158 22 30.6649300896 41.1179195209 90.5213878304
49159 23 31.9086364984 39.3240114653 89.2009787099
49160 24 30.2931090175 39.834365118 86.4162025744
49161 20 26.7372835493 73.427533741 45.2432158538
49162 20 24.2036620248 74.7690828772 45.1438764881
49163 21 26.9315659057 73.7128304127 46.7596845887
49164 21 23.3253224356 74.5093225961 46.4162996439
49165 22 27.505713765 74.4350519216 44.6247300855
49166 22 27.3460411688 72.1392088035 44.9505295306
49167 22 24.9512328446 75.9585361485 45.431605197
49168 22 23.2060590728 74.959623638 44.1057707627
49169 23 25.1304552783 73.4425001238 44.974475743
49170 24 81.1144550154 34.1739856116 27.6720276937
49171 20 79.0448848969 95.7585928638 38.3943184751
49172 20 78.2291234956 93.0190900362 39.0570486125
49173 21 79.4004300277 95.7494259543 36.8533422884
49174 21 78.1775830149 92.3100576521 37.6353357885
49175 22 79.9760745253 96.6472218412 38.9824973183
49176 22 77.7225114386 96.3109459282 38.474388623
49177 22 78.7665101772 92.0054917626 39.9006849017
49178 22 76.9124559708 93.4188795362 39.4006206371
49179 23 79.2694741784 94.2335184587 38.8226376422
49180 24 76.2530932695 95.1407618747 38.4010533473
49181 20 3.3770611148 13.05847739 81.5681234933
49182 20 96.0908465614 12.8414648398 78.9368463212
49183 21 4.7209674563 13.6043762019 81.9126309169
49184 21 3.7465988782 12.0981875011 78.2909533645
49185 22 3.5547354634 11.6479332292 81.7074979329
49186 22 96.0030126025 13.6849140492 82.4927653293
49187 22 95.0932436094 11.8838408377 79.2560979738
49188 22 95.6516767668 13.6931455597 77.915951936
49189 23 96.7339333214 13.5161680834 80.1360277413
49190 24 4.5681887502 12.3166125037 88.4695902915
49191 20 6.2933449849 85.452835223 30.0190371329
49192 20 5.6535134132 87.5099645358 28.2333605877
49193 21 7.7936593805 85.2962494432 29.7936995322
49194 21 6.8273361685 88.4965297805 27.9996043967
49195 22 5.7338922427 84.3689884902 29.2560322309
49196 22 6.2308229209 85.1874625484 31.3820069044
49197 22 5.6486399848 86.5812069445 27.132115435
49198 22 4.4757806905 88.3329285088 28.3236265838
49199 23 5.9584160464 86.9313267617 29.6660175791
49200 24 93.3169210535 89.47028006 23.3848138071
49201 20 46.1804855752 70.9475105749 77.4353439691
49202 20 47.9771062878 72.9182090271 76.548959949
49203 21 45.2651977285 71.4678729961 78.5631544512
49204 21 48.0867350416 72.1308837531 75.1918831907
49205 22 46.4233151358 69.5726612369 77.7329879065
49206 22 45.4574222073 71.1566657742 76.2393429053
49207 22 46.910657975 73.8334968738 76.3615060048
49208 22 49.2417656325 73.5250023088 76.7049844895
49209 23 47.5412103894 71.7806703961 77.5619034434
49210 24 49.8043145452 75.3842947493 77.2218859347
49211 20 42.7862970411 76.230082456 72.6226229672
49212 20 44.4716988216 73.9406000506 72.9223247824
49213 21 43.3107752175 77.1127248803 71.4049206485
49214 21 45.4292666997 73.6955255326 71.634748164
49215 22 43.4036603306 76.8325729027 73.727329096
49216 22 41.3866596317 76.342143247 72.6856688547
49217 22 45.3026136854 74.596314696 73.8366772302
49218 22 44.1142828929 72.5990509144 73.3871245075
49219 23 43.2203221416 74.7325087793 72.3852187204
49220 24 43.755276786 77.9086558244 75.3105853141
49221 20 91.7298296998 51.1562466094 5.0823307685
49222 20 88.9504788781 51.0207073054 5.6683301322
49223 21 92.4718816659 49.9257293254 5.6629141724
49224 21 88.7534838648 49.6003975798 6.1463376901
49225 22 92.7110631707 52.227278377 5.3240565583
49226 22 91.4726885357 50.8279215873 3.733746497
49227 22 87.9583012399 51.7120606498 6.382806538
49228 22 88.7271991551 50.8545804566 4.2552416863
49229 23 90.4595579616 51.2876701582 6.0670813393
49230 24 87.2865912728 51.2611983687 96.4038310413
49231 20 89.0346647813 80.601201626 18.8036975788
49232 20 91.3804582019 79.9184539516 20.246924578
49233 21 88.0699878713 79.460202019 18.907807479
49234 21 91.0121916456 78.5889714615 20.9437967761
49235 22 89.011466888 81.2036920727 17.5144372424
49236 22 88.6678948633 81.505825925 19.8553665886
49237 22 92.7271520322 79.6256740886 19.805509826
49238 22 91.1811246912 80.982657307 21.2263807909
49239 23 90.440101664 79.9669076159 19.0001313527
49240 24 68.5802965189 84.0729347309 46.9682785487
49241 20 76.3190388936 88.3594002983 39.2170018284
49242 20 74.5408455399 90.5075439264 38.6507113201
49243 21 77.1795123634 88.0679299937 38.0289516555
49244 21 75.6595826525 91.1741091993 37.7944471454
49245 22 76.1024005029 87.0496547255 39.747466558
49246 22 77.1204886914 89.2780555812 39.9503545845
49247 22 73.3676682099 90.5988388613 37.8927575723
49248 22 74.5831255712 91.1682161861 39.9328626246
49249 23 74.9606525768 88.9791020852 38.6548270753
49250 24 73.7148882903 93.2185170867 39.9106001302
49251 20 49.880923717 58.8300722989 71.2087674942
49252 20 51.471195427 56.5937205523 70.4924389985
49253 21 49.2054721543 58.0938198061 72.3581856915
49254 21 51.3823325293 56.7646179357 68.8916908206
49255 22 49.0060451038 58.6078215146 70.1262303199
49256 22 49.9475241204 60.1933226901 71.6208107201
49257 22 52.7705580718 56.1316334841 70.7958824093
49258 22 50.4502075019 55.649435339 70.8380689008
49259 23 51.2320139223 58.1044833538 70.9438625191
49260 24 49.7118035916 61.8536557795 72.3032777747
49261 20 51.3770942953 16.1231248834 64.1799929025
49262 20 49.4070506223 14.2529818155 62.9044829303
49263 21 51.2608242091 15.920143317 65.7532403521
49264 21 48.9444958546 13.1838208458 63.8985313664
49265 22 50.5614264339 17.2587927166 63.9178005842
49266 22 52.7147147561 16.3642707259 63.8671955025
49267 22 48.351452937 15.2724731023 62.8257223409
49268 22 49.5062964481 13.4911929321 61.7458042836
49269 23 50.8243670713 14.7806403483 63.5268038342
49270 24 42.0481737505 22.7334019967 66.3373969799
49271 20 15.9173371202 18.8728235592 85.1001898288
49272 20 13.2652940921 19.3436098375 86.0204352898
49273 21 16.7602250903 17.904124434 86.0788041827
49274 21 12.9262119822 18.806129616 87.4738581373
49275 22 16.9095147585 19.8309526767 84.6157467263
49276 22 15.4398159697 17.9825108638 84.1397222141
49277 22 12.6322161006 20.6647672772 86.001166072
49278 22 12.7784189523 18.4140103872 85.1152497515
49279 23 14.8141276297 19.5539810554 86.0217448483
49280 24 15.563849867 17.0436509641 82.5222303954
49281 20 26.2036384634 86.2336127045 91.5385406199
49282 20 25.863340335 87.8072343137 93.8099698261
49283 21 24.8826681035 86.1007860574 90.6736707752
49284 21 27.3899113783 88.0085321621 94.1780493026
49285 22 26.7782540222 84.9552965355 91.4285377065
49286 22 27.0092975563 87.2604936429 91.0248195311
49287 22 25.5607387832 88.9543140137 93.0013174567
49288 22 25.2625336064 87.7918002315 95.163117909
49289 23 25.7813058494 86.3926305215 93.029753584
49290 24 25.0414988407 90.6563658951 93.0569736926
49291 20 30.1556053757 21.3460183132 53.4626597354
49292 20 32.4673502755 22.4983362472 54.445857544
49293 21 28.7382889267 21.7579679992 53.9404615055
49294 21 32.975271891 22.2179971898 53.0353695071
49295 22 30.1541087374 19.9274858456 53.4114934142
49296 22 30.3261285995 21.9611366454 52.2221336829
49297 22 32.3411649607 23.9319286375 54.4844895195
49298 22 33.4559733978 21.9300814011 55.2933289687
49299 23 31.0436731138 21.8338288519 54.6375207834
49300 24 30.6264851938 18.7477607232 52.0597484297
49301 20 57.6782220643 32.0147107364 75.1502579386
49302 20 56.7961408794 32.5626674258 72.4286212305
49303 21 57.3792685684 30.5128342246 75.0955371016
49304 21 55.7890903982 31.4740501585 72.1434180987
49305 22 57.1976140974 32.4368562706 76.4435404904
49306 22 59.0569065378 32.0986160198 75.0045227863
49307 22 56.3023437876 33.7554881332 71.7817928748
49308 22 58.1058864522 32.1894432553 71.8894572909
49309 23 56.7723817467 32.7114893945 73.978483707
49310 24 59.8019517805 32.5688410587 71.9526902582
49311 20 58.0256292246 87.3298067031 11.9855374087
49312 20 57.067593647 89.054027539 14.0902224028
49313 21 56.8762110273 87.351601498 10.851225904
49314 21 55.6292307222 89.3342730565 13.7314033757
49315 22 58.5169942791 85.9935893407 11.8451059683
49316 22 59.0071433151 88.2407917148 11.4426692894
49317 22 57.0285875119 88.9689062369 15.510812748
49318 22 57.7509025607 90.2075614916 13.599044428
49319 23 57.2947085057 87.6756236852 13.3725843486
49320 24 60.4554214685 83.501031829 7.1525182503
49321 20 81.1429846825 86.0889064911 21.2134722858
49322 20 80.2636161544 88.7881871649 20.9996400918
49323 21 82.6007103651 86.2141564069 20.9427678373
49324 21 81.5376294884 89.6372487678 20.5573834808
49325 22 80.8702223564 84.8063810269 20.5661762306
49326 22 80.9798511102 86.1849719605 22.6211541259
49327 22 79.2192432562 89.3577515695 20.2628263597
49328 22 80.1629672303 88.893232464 22.4308939848
49329 23 80.476887109 87.3100697858 20.425118073
49330 24 91.4771784506 29.2387273508 38.058977961
49331 20 15.2992255115 26.8763773692 88.8733084669
49332 20 16.8434755945 25.1970556817 90.6636620067
49333 21 13.7930461647 26.6038956628 88.9560912717
49334 21 15.9903917762 24.319932111 91.6012123478
49335 22 15.8107951828 26.097938385 87.7100463655
49336 22 15.371812468 28.2631998134 88.6812710679
49337 22 17.0258783846 24.2650241942 89.5930043988
49338 22 18.0071118555 25.5228551268 91.3633404016
49339 23 15.8910524105 26.4011011762 90.3145711284
49340 24 33.7911268322 66.9271660012 42.9223975845
49341 20 81.7700761209 48.4701550604 24.606725421
49342 20 81.9850307935 45.6638647497 24.7690171343
49343 21 80.5684626636 48.5112190732 25.5535362115
49344 21 81.7879422403 44.9331311106 26.136196201
49345 22 81.1353144114 48.3692255166 23.3254159755
49346 22 82.3851944531 49.7283601526 24.9410369963
49347 22 80.67594 45.544601387 24.2777456196
49348 22 82.9803887882 44.8546511409 24.0680291809
49349 23 82.508667111 47.1210291929 25.0824693136
49350 24 78.6043120039 42.3315996243 22.0957405505
49351 20 52.7343581334 65.7849503756 24.2229312427
49352 20 54.3933816643 63.5772218361 23.9212650898
49353 21 51.3003915836 65.0796595872 23.9981548813
49354 21 55.8237936983 63.9178941241 24.3971960621
49355 22 52.5902131593 67.0439973268 23.554401632
49356 22 52.9644662687 65.8771807095 25.600025538
49357 22 53.8043609622 62.9522818153 25.0887364864
49358 22 54.5454775293 62.6391102557 22.8262871098
49359 23 53.7190525803 64.899969454 23.4355124288
49360 24 52.2291491748 60.8484760962 32.8065259252
49361 20 18.3369335159 95.4430828068 24.9114783903
49362 20 17.4761794264 3.9890131216 26.5897711391
49363 21 17.7929990418 94.3337932233 25.8654917525
49364 21 17.3003244288 96.7071809122 27.9545181686
49365 22 19.5669831004 94.9727642281 24.4088885487
49366 22 17.3476556143 95.7379205476 23.9727120306
49367 22 17.9073983302 5.287884682 26.9785229317
49368 22 16.192157324 3.9524530547 26.0047726522
49369 23 18.5242003804 96.650028038 25.8754069811
49370 24 14.9385356866 5.6538688648 21.0214348868
49371 20 8.4156716027 14.4665333897 81.96201998
49372 20 11.0075030022 15.5165186815 81.8450015747
49373 21 7.4000154515 15.3795762791 81.1022948293
49374 21 10.8701116083 16.5942853213 80.7205585286
49375 22 7.6230706788 14.0003305662 83.0774831964
49376 22 8.8171728827 13.4274922654 81.0684333883
49377 22 11.8820355178 16.1910348453 82.7327886931
49378 22 11.5780402216 14.3503568434 81.3026572788
49379 23 9.5639953833 15.4212950711 82.4442181251
49380 24 12.5207913808 16.593630542 84.7679361311
49381 20 91.8960500885 49.8226483641 61.3493822198
49382 20 93.8619780063 50.18249633 59.3929018312
49383 21 90.61735976 50.0917626344 60.4600049232
49384 21 94.2935710696 48.6715464487 59.6136559772
49385 22 91.614962712 50.514469408 62.5917790701
49386 22 91.8820191047 48.4424672523 61.5239276589
49387 22 92.9863510739 50.2247763613 58.2549890406
49388 22 95.0533020754 50.915942626 59.229674719
49389 23 93.0700692776 50.4995965651 60.6712180002
49390 24 94.5644625979 41.1246543932 62.7084233159
49391 20 33.209869941 22.2112623176 49.2884420388
49392 20 33.3397968515 19.4138582967 50.1389067401
49393 21 33.0654443472 22.3537235736 47.7545748839
49394 21 34.4587210439 18.8349399028 51.0004091488
49395 22 34.1301154021 23.2074621712 49.6418357521
49396 22 31.9043336634 22.2840363538 49.9015960332
49397 22 32.3423809793 19.6019670202 51.1083541846
49398 22 32.9724656942 18.3530223774 49.2873195601
49399 23 33.9245147187 20.8008678206 49.5360421339
49400 24 31.561416418 17.2256795947 48.8840690841
49401 20 22.6858837314 91.6286195363 94.7457429093
49402 20 20.1653577919 91.1443635135 93.3722966698
49403 21 22.8310576444 93.2236617808 94.9353482711
49404 21 19.8488187961 89.6625980787 93.2144948714
49405 22 23.4114726764 91.2963658386 93.5364591809
49406 22 23.3869652246 91.1733608802 95.9163946622
49407 22 18.9542032656 91.7747288482 93.6328988099
49408 22 20.7190204148 91.542843455 92.0922967827
49409 23 21.1347116964 91.232571632 94.6157224589
49410 24 25.7376227197 83.9861297108 92.6366054164
49411 20 30.2260409147 46.3437126874 47.2422568934
49412 20 30.851448635 43.8150487772 48.2024438885
49413 21 31.6805862409 46.9024264645 47.2133530667
49414 21 32.3664207316 43.7330142916 48.0275242898
49415 22 29.7071751317 46.6740020473 48.5124350918
49416 22 29.5119573764 46.9942826388 46.1861915087
49417 22 30.5799023275 44.2519736145 49.5600818862
49418 22 30.4058245878 42.4826665505 47.9429642271
49419 23 30.4832756186 44.8110615511 47.0794039408
49420 24 30.4288354013 43.6843735476 45.3024266057
49421 20 32.0932842459 14.6456622836 50.5058637379
49422 20 30.9803466066 15.7060305034 52.9065650753
49423 21 33.6324831747 14.9273108995 50.416252521
49424 21 29.4944654165 15.4468314617 52.548774987
49425 22 31.4298057894 15.643826475 49.7814908114
49426 22 31.8497999061 13.3740809869 49.8603449407
49427 22 31.1294491951 15.5196054979 54.2800113148
49428 22 31.1804284364 17.0482344189 52.5271672719
49429 23 31.719592376 14.6327537785 52.0347732785
49430 24 30.2521385446 21.1208677923 56.428061403
49431 20 90.4029663267 7.2721557726 62.8060789635
49432 20 90.3630247927 6.16729998 60.3073478189
49433 21 90.1614463246 5.997852465 63.6197824872
49434 21 90.4073627016 7.2977669951 59.3134864626
49435 22 89.075728794 7.7696289821 62.6551055773
49436 22 91.2608206795 8.1053343018 63.6033194661
49437 22 91.072711956 5.0509574886 59.7317968612
49438 22 88.9708705747 6.0252502995 60.4986368988
49439 23 91.1332322664 6.8038202395 61.5300077519
49440 24 85.9306369932 12.2196958213 64.6081249898
49441 20 18.7968691667 48.4026192581 84.6189270826
49442 20 19.7231011808 50.6457994168 83.0776702762
49443 21 17.2355012834 48.4423737124 84.6718706617
49444 21 18.3856677998 50.7680560561 82.3483397355
49445 22 19.1251006489 47.932581299 85.9382137245
49446 22 19.1488597816 47.5326982592 83.5526658496
49447 22 20.1118529734 52.0175619383 83.2040426708
49448 22 20.630157517 49.8871908898 82.2371208035
49449 23 19.2690585433 49.8752177836 84.3846096523
49450 24 19.4443523016 45.9256829085 82.5543145785
49451 20 12.4941044495 77.1740870497 41.5816903073
49452 20 11.3769013911 79.2140050223 40.0702727265
49453 21 11.2708458611 76.2519707908 41.3943299029
49454 21 10.4226074092 78.8510702399 38.9369433907
49455 22 12.4620202664 77.813432214 42.8055662589
49456 22 13.6112981539 76.3035112715 41.4864666968
49457 22 10.5767237359 79.5758173259 41.2259580966
49458 22 12.0773374591 80.3162791138 39.539714457
49459 23 12.4121635038 78.0743149738 40.334897082
49460 24 12.8261242974 78.1199624412 46.1593455596
49461 20 56.7022268275 81.5181731908 28.6739334807
49462 20 55.5605724412 80.3116956591 26.1916653572
49463 21 58.0639805804 80.8876207764 28.9909401759
49464 21 56.4972809233 79.2671356811 25.4781430582
49465 22 55.794515712 80.8706900559 29.5851991121
49466 22 56.9748020738 82.8912452707 29.0023520428
49467 22 54.6364918446 79.5165130342 26.9115483688
49468 22 55.0038230019 81.0046391817 25.0676900106
49469 23 56.4746442694 81.2392372318 27.0979733742
49470 24 50.0051446941 76.1333622073 34.6283088688
49471 20 91.4619314481 41.2106175543 67.0836582411
49472 20 93.8690870381 41.9367677387 65.7087153633
49473 21 91.4042173345 42.2795914442 68.2062304894
49474 21 95.2864034871 41.6993634918 66.2253361888
49475 22 91.0886137377 39.960363353 67.7417113839
49476 22 90.59126213 41.6829004708 66.0289959548
49477 22 93.843082948 41.5199539783 64.2992562653
49478 22 93.5872513424 43.3220000046 65.9126323287
49479 23 92.9937407254 41.0234442297 66.6384083535
49480 24 90.2974533281 42.0820351915 64.2846640421
49481 20 85.2117829204 53.2781055277 3.3121510709
49482 20 84.2437385744 53.4800581553 5.8527720919
49483 21 86.0267960025 54.6640861128 3.3482564404
49484 21 84.0238262874 51.9622798619 6.185549613
49485 22 84.7388452246 53.1705346515 95.5067834735
49486 22 86.1661704421 52.3135221577 3.7136185829
49487 22 85.538891924 53.8269976161 6.2366691642
49488 22 83.1912277055 54.1386725374 6.5728889533
49489 23 84.0338350559 53.6169070179 4.2782618538
49490 24 30.7367687269 52.8265884673 78.8376940353
49491 20 47.2345866223 73.5341692183 37.0557626154
49492 20 47.8541948692 74.0852127242 34.3812700131
49493 21 45.772277485 73.2229619964 36.6599953308
49494 21 46.4987082891 74.5130641918 33.7122727029
49495 22 47.1750952507 74.2063468848 38.3128452288
49496 22 47.897877999 72.2624008418 37.1253562953
49497 22 48.8098919495 74.8254874323 33.6636319589
49498 22 48.0576441351 72.6651836183 34.2350671613
49499 23 47.764864272 74.4402901556 35.8996095459
49500 24 49.6795323288 71.8247276854 37.3477006195
49501 20 15.6812424319 30.8943834456 31.3299051844
49502 20 16.092256719 28.6817908317 32.9940734094
49503 21 17.0290587409 31.2995047194 30.7082390598
49504 21 14.6942094877 28.3841468942 33.6482914165
49505 22 14.9951273215 32.119288336 31.4685313049
49506 22 15.0027975926 30.0133311994 30.4744828688
49507 22 16.1315434737 27.761264751 31.8946055146
49508 22 17.1006167586 28.4141731996 34.0035559277
49509 23 16.0119994913 30.234459505 32.6990485889
49510 24 19.7028030242 21.8883626091 25.1479472382
49511 20 35.3362187742 74.910047495 49.6466998265
49512 20 35.3852336778 77.2060776929 48.1726982027
49513 21 35.2047952254 75.4903689872 51.1562466094
49514 21 35.1932898186 78.2859957502 49.2886291186
49515 22 36.1236375881 73.7306965321 49.894861161
49516 22 33.9445322556 74.7079077876 49.3095820545
49517 22 36.1950085259 77.8920992634 47.2128853672
49518 22 34.076329964 76.8848617025 47.6865713821
49519 23 36.0768676419 76.0426285117 48.9850921679
49520 24 40.6727631732 64.8151287716 45.4719208906
49521 20 93.5303790879 8.7905420753 73.7323802502
49522 20 92.9248018247 10.0398421697 76.2209155465
49523 21 92.7853338452 7.4123253013 73.6611963921
49524 21 93.3087830829 11.4220343892 75.936367194
49525 22 94.7485491061 8.656995171 72.9826580129
49526 22 92.6961903278 9.6877299529 73.0368176106
49527 22 91.5371375216 10.084750672 76.0009097197
49528 22 93.2727702243 9.9021046782 77.560500345
49529 23 93.7300867581 9.1260696692 75.263721828
49530 24 94.1556932683 14.7885912391 77.7348587044
49531 20 89.097430049 11.4008382496 71.6538303021
49532 20 88.0468835179 11.1019221695 74.2480656768
49533 21 88.8516072119 12.686562778 70.8934445171
49534 21 88.6432003317 12.4137723899 74.7440141861
49535 22 88.9255972668 10.4266670406 70.6674521371
49536 22 90.4398210443 11.3710925638 72.2058092069
49537 22 86.7966293167 11.1832644599 74.916127588
49538 22 88.848894555 9.9415785128 74.6092232012
49539 23 87.9076026182 11.3390270887 72.7136372825
49540 24 95.6136995705 8.4459317579 68.4304456113
49541 20 78.2222950835 78.418261158 15.8602777859
49542 20 75.8226226849 77.2447096684 15.217097486
49543 21 77.6888370773 79.1575069273 17.0822829397
49544 21 74.5942568184 77.870772168 16.0198568423
49545 22 79.1500237359 79.3368229009 15.3272874792
49546 22 78.8533151973 77.2160864614 16.3093628091
49547 22 75.3024473435 76.7611084249 13.9212893572
49548 22 76.1917311001 76.190982781 16.1006753093
49549 23 76.8868260403 78.308725944 15.0116838824
49550 24 79.6941452898 75.8089658606 17.2546769613
49551 20 89.7113323626 46.9216021424 63.5402735787
49552 20 91.5585581569 44.774674533 63.2898672868
49553 21 88.9994002418 46.6866299328 62.1994727616
49554 21 91.420306196 44.3186675577 61.7267221456
49555 22 89.8607155707 48.3370477936 63.5791861739
49556 22 88.9054861899 46.405729636 64.5755731073
49557 22 92.8644685942 44.5308160336 63.6705746487
49558 22 90.6374708368 43.8574223485 63.8791686087
49559 23 91.1984295713 46.3208889537 63.3014662335
49560 24 93.4832349821 42.5715294482 59.9612502172
49561 20 42.1510676321 19.9960505867 64.9362629322
49562 20 43.1372587172 22.2070530224 63.5410218978
49563 21 40.7077470929 19.708134798 64.2107675271
49564 21 41.8666128194 22.455120817 62.6484642449
49565 22 41.7712021292 20.8428672322 65.9822260086
49566 22 42.720351417 18.7381261142 65.2123926945
49567 22 43.0139731391 23.0305782348 64.696613728
49568 22 44.1763933814 22.5784063951 62.572790472
49569 23 43.0547565321 20.6784241015 63.8546611569
49570 24 46.8987784087 16.37811463 63.066400484
49571 20 58.6088504534 91.2311685337 9.718046232
49572 20 61.1819458125 90.9334310563 11.1142787893
49573 21 58.49884754 92.5024692107 8.7379726558
49574 21 62.3556843818 91.6536882274 10.5754141774
49575 22 57.9902711453 91.6769796606 10.9388914911
49576 22 57.8659566283 90.2143899037 9.0522760481
49577 22 60.7479207119 91.6250650204 12.3098027996
49578 22 61.825406732 89.6737293259 11.4570276629
49579 23 60.2101598707 90.8117356563 9.8723402845
49580 24 55.1143871547 86.1234227113 3.2845657824
49581 20 93.0882160167 42.1114067177 23.696021029
49582 20 94.6559446126 40.0523130672 24.9114783903
49583 21 93.8758219103 42.9236136031 22.6000141102
49584 21 93.5352431623 39.5598255339 25.9086136429
49585 22 93.2977453756 42.832412208 24.8628376463
49586 22 91.7485376783 41.9982234479 23.1793066636
49587 22 95.3150266942 38.8506996099 24.4399437929
49588 22 95.5688004222 40.9144702551 25.593945445
49589 23 93.8805924449 40.698112484 23.7318468078
49590 24 90.015149933 41.3902141476 23.9772954853
49591 20 77.6746190137 53.9724521487 82.400909155
49592 20 78.1324967868 51.1698098938 83.0176176653
49593 21 77.679576628 54.3115342585 80.8077377083
49594 21 76.9716667226 50.6337327707 82.1568635758
49595 22 78.211444456 55.1726625076 82.9977872081
49596 22 76.3095913645 53.8492601105 82.703323627
49597 22 79.1619968421 50.2551768263 82.8607512658
49598 22 77.6971621278 51.2234082522 84.345697057
49599 23 78.4881354576 52.6069568001 82.4523560958
49600 24 70.3655053646 54.8402217301 87.3415927295
49601 20 96.1062806437 90.0781022805 25.3372719804
49602 20 3.439665494 91.7300167796 27.4135769711
49603 21 3.8484479192 89.4418439327 24.6908177843
49604 21 4.9588206946 91.8074678105 27.3952431522
49605 22 95.1990372277 90.1502215375 24.24266816
49606 22 95.7880579299 89.0042643162 26.2358161864
49607 22 96.7054971941 93.0891514156 27.8855792679
49608 22 96.5182303296 90.7906891805 28.3607619211
49609 23 96.5254329013 91.453325778 25.9218027677
49610 24 67.6872711665 17.4515784347 93.5304726278
49611 20 73.8104860603 13.9012718202 93.9272688511
49612 20 71.8013427123 11.989625102 93.1411595958
49613 21 73.8526725518 14.3331455032 95.4314838602
49614 21 72.4383493793 11.0167728055 92.0856554504
49615 22 73.1238097105 14.93554241 93.2386281636
49616 22 75.182903361 13.6640546532 93.5307532474
49617 22 70.9471364153 11.1891668271 93.9551437391
49618 22 71.1032544956 13.0181616964 92.4207153448
49619 23 73.0222253874 12.5256367472 93.9456962099
49620 24 28.029724242 27.0957284168 55.4753575993
49621 20 21.6108297485 56.5628523878 84.7382839853
49622 20 24.4210487347 57.2748780485 84.6847791668
49623 21 20.5952671372 57.7512767203 84.4114556014
49624 21 24.2957052789 58.7637525152 85.3321687619
49625 22 21.5618148449 56.468002937 86.1628965459
49626 22 20.9991723924 55.3741474357 84.1951913702
49627 22 24.8326242611 56.368102332 85.7286843656
49628 22 25.3794584718 57.5253778802 83.6397514894
49629 23 22.9751090786 57.066751788 84.0608680848
49630 24 20.8680294633 47.5308274614 86.7415343201
49631 20 51.2437064088 69.70034319 88.5193535142
49632 20 51.6605201692 70.9019566473 85.9850772105
49633 21 50.9074304958 68.199589157 88.4689355123
49634 21 51.8648112941 72.3398518726 86.4793420018
49635 22 50.5558140404 70.1766483219 89.6686781717
49636 22 52.6776729587 69.8705857941 88.6878188604
49637 22 52.9654952075 70.3105039079 85.8852701454
49638 22 50.9259513945 71.0565780893 84.833226976
49639 23 50.7848932368 70.2531639539 87.1112039747
49640 24 54.0728204532 68.7533453198 85.8089415932
49641 20 58.8785259631 32.0356636722 93.6359856263
49642 20 58.2319782271 30.2852516665 95.828747783
49643 21 57.7596017707 32.335646107 92.7625101115
49644 21 59.4012268816 29.3033634164 96.1596919222
49645 22 60.0029690092 31.9989960344 92.7427731942
49646 22 58.9051848324 33.1332607692 94.5341556728
49647 22 58.5181167578 31.2961372833 3.2917795789
49648 22 56.9570294943 29.637394372 95.965222486
49649 23 58.494544705 30.6501507866 94.2866491176
49650 24 58.5913584936 32.2918694374 4.859481329
49651 20 16.5781964598 61.1620218154 45.0591293456
49652 20 15.1543322183 63.6616883589 45.0048762081
49653 21 16.5732388455 60.4839511357 43.6735229201
49654 21 14.6746596502 63.9031148211 43.5731546156
49655 22 15.5695558004 60.5351174568 45.8538442711
49656 22 17.8554836899 60.9471606827 45.6040927585
49657 22 14.0553320229 63.1504928472 45.7733064238
49658 22 15.5120287666 64.9702179132 45.4193514711
49659 23 16.4054282786 62.6826998455 44.7874894982
49660 24 18.4475912086 62.7024367628 46.1141657916
49661 20 35.2293962171 27.0481166116 95.6003233659
49662 20 34.1375985935 28.4177277156 93.5053103967
49663 21 35.9448828538 28.2813465525 96.2595925272
49664 21 34.3436669763 27.2007737159 92.5000371735
49665 22 36.2132488049 26.4900576138 94.7289992686
49666 22 34.9142603197 26.1699641021 96.686508596
49667 22 32.9281277853 29.0246145372 93.0415396104
49668 22 35.2973997188 29.1805455377 93.2997097133
49669 23 34.0061750447 27.6232934097 94.8878300058
49670 24 28.4493441992 44.709477228 87.1258897378