ITEM: TIMESTEP
11000000
ITEM: NUMBER OF ATOMS
4000
ITEM: BOX BOUNDS pp pp pp
3.23005382 96.76994618
3.23005382 96.76994618
3.23005382 96.76994618
ITEM: ATOMS id type x y z
49081 20 24.759663145 41.1381241377 14.1506491732
49082 20 26.6558103031 40.3625848901 15.8986291418
49083 21 25.1591720253 41.4357680752 12.5998512978
49084 21 27.5546351287 41.2759083991 16.779587848
49085 22 23.7809552513 42.1777265014 14.3836570451
49086 22 24.2376170058 39.8935758698 14.1516781121
49087 22 25.8391135029 39.625771158 16.8054983982
49088 22 27.6005632159 39.5600126137 15.2240194381
49089 23 26.0198325749 41.4382001124 15.0000849358
49090 24 24.379049323 34.1040177721 22.257845184
49091 20 40.0305182723 61.9113698931 46.1136045522
49092 20 40.3063674148 59.103676484 46.0832976271
49093 21 38.9198255904 62.0602854017 44.9716695463
49094 21 41.7988899373 58.9706627571 46.6275127208
49095 22 41.2775921172 62.1479322809 45.467243896
49096 22 39.6677705697 62.9851143175 47.0454489599
49097 22 39.600608927 57.9794205177 46.6346217527
49098 22 40.420953783 59.1556846642 44.6596204654
49099 23 39.7651455976 60.4684235136 46.681204619
49100 24 39.9215442977 57.3024723167 48.3763345484
49101 20 13.9950923322 41.5311787654 68.6727139326
49102 20 12.9381850885 40.9647947171 71.2531054032
49103 21 15.3000673706 42.4220527002 68.8271482948
49104 21 14.181236718 41.4077061075 72.0754145969
49105 22 13.3763259443 41.9509858023 67.4294752232
49106 22 14.4312688503 40.1531490711 68.6103228244
49107 22 11.88363505 41.4795447448 72.1211556043
49108 22 13.0283575447 39.5297992285 71.0276742626
49109 23 13.0748468712 41.8734412315 69.921097336
49110 24 8.0526432805 46.6603452231 69.610825513
49111 20 82.8330634577 86.4716717306 81.6248086681
49112 20 81.8938293985 84.4897484913 83.3568868549
49113 21 82.0797867045 87.7391372721 82.300073151
49114 21 80.5712688604 85.0920518582 83.9379566662
49115 22 82.9150044034 86.7543492853 80.2233940007
49116 22 84.0663869384 86.6802656906 82.347030177
49117 22 81.7462234484 83.0715901832 83.2999210605
49118 22 82.8517714362 84.9760623917 84.3068780017
49119 23 82.0351681759 85.1522915489 81.9471471371
49120 24 84.5870299793 85.823907976 83.8849195473
49121 20 39.9280920901 66.1388117884 48.0632565287
49122 20 42.3287934275 65.4270667474 46.9127158526
49123 21 40.0975863751 67.3595073837 48.8785502305
49124 21 43.2097521338 66.6592677495 46.9390941023
49125 22 39.1374929199 65.2798349569 48.8811693475
49126 22 39.3531023718 66.6826527226 46.8700616617
49127 22 43.2939380369 64.3729657004 46.9514413681
49128 22 41.7202228878 65.6061956413 45.6177495828
49129 23 41.3606555416 65.5102237118 48.0996435468
49130 24 42.0392874607 58.6812503301 43.6558438805
49131 20 85.2177694735 31.4839653871 35.3169495563
49132 20 87.093524935 30.0365290927 33.6584872648
49133 21 85.2763254461 33.0655378871 35.3215330111
49134 21 87.4942498339 28.8375347525 34.5026847934
49135 22 85.0625867921 31.241603526 36.6756164929
49136 22 84.0547879918 31.1549855857 34.4748099054
49137 22 85.9852642903 29.5860409711 32.8968854612
49138 22 88.2781141318 30.4473563 32.9756460506
49139 23 86.6608093929 31.0288002709 34.7310156706
49140 24 81.3162205632 31.9285604955 31.1253334398
49141 20 49.0477638958 36.7238830773 8.1427689667
49142 20 49.611528827 38.1277297819 5.696326622
49143 21 48.2836365151 35.5044970405 7.5513068734
49144 21 48.755545272 37.5458181115 4.531857856
49145 22 48.2733471269 36.8956223197 9.2994926297
49146 22 50.4280385474 36.3240000375 8.2404339684
49147 22 49.6238760928 39.577972273 5.5114356707
49148 22 50.8501840816 37.3804395818 5.6000553647
49149 23 48.8316867444 37.8221349535 7.040644539
49150 24 50.0102893881 41.0834033007 6.5129485902
49151 20 74.5145608301 96.6782770855 35.8471336662
49152 20 71.6575718978 96.5009254495 35.9851050075
49153 21 75.1354786356 95.3648834568 35.4178791002
49154 21 71.4920062883 4.1985284495 36.95623617
49155 22 74.5380393431 96.599610036 37.2405039028
49156 22 75.4354610704 4.0807476941 35.3349092157
49157 22 70.5871013696 96.525713521 35.008735611
49158 22 71.6691708444 95.3494493746 36.8516585703
49159 23 73.0110006003 3.3955492746 35.281591477
49160 24 72.1739121036 93.820539834 37.7912667891
49161 20 29.7058655732 47.3057704803 32.4195513905
49162 20 27.6306830612 48.8362701991 33.5395045217
49163 21 29.3473271658 45.9885417161 33.185549569
49164 21 26.2815571937 47.9737388517 33.7918751513
49165 22 30.5899110959 48.0367847391 33.2311970365
49166 22 30.1218374746 46.8850280445 31.0638777305
49167 22 28.3224105652 48.8011927395 34.7550554229
49168 22 27.0652344119 50.058181813 33.06301231
49169 23 28.349537134 48.069056002 32.3736233033
49170 24 83.2339754363 37.4029826959 23.5594527862
49171 20 7.1432390929 90.461802919 47.9431513069
49172 20 8.4659960648 92.5496133165 46.6338734335
49173 21 7.621143757 89.5935656381 46.766419461
49174 21 7.1147000718 93.3579850662 46.3410000305
49175 22 5.7852549976 90.6359741986 47.7360539852
49176 22 7.4859786125 89.672700387 49.0711488688
49177 22 9.5554364831 93.4390841529 46.7775507082
49178 22 8.623947527 91.8127060445 45.4295473194
49179 23 8.0902089012 91.6813760356 47.9194857141
49180 24 8.2167777296 90.659920411 44.0340256653
49181 20 14.5291115777 29.3048600547 64.8087680589
49182 20 12.2371503652 30.841907566 65.2579466221
49183 21 14.3004065409 28.0208379523 65.5958127133
49184 21 11.1192551116 30.1931148725 66.1137430973
49185 22 15.1776236515 30.0360613933 65.9027171001
49186 22 15.2943614371 28.8677481377 63.6978882973
49187 22 12.9444522613 31.7151024611 66.1085048633
49188 22 11.5893772566 31.529238695 64.2298496651
49189 23 13.0239611698 29.6848190975 64.5544330916
49190 24 11.6693912805 33.7665258405 70.7957888694
49191 20 91.2315426932 87.1894033247 96.109461
49192 20 91.3311626786 84.3895672666 3.3624286695
49193 21 92.1609550637 88.1581959898 3.3117114334
49194 21 91.3367750721 83.2514673962 95.8166811369
49195 22 89.9622998938 87.2626450604 96.7093323297
49196 22 91.2983301764 87.5411133199 94.7269413909
49197 22 92.1969679223 83.88258105 4.3487628707
49198 22 90.0000900103 84.5628031472 3.8598120807
49199 23 91.8959565487 85.7401897723 96.3072043325
49200 24 84.7125605149 86.9726713941 4.0348616999
49201 20 52.2466411347 86.5283569054 88.2289121485
49202 20 52.5526101226 88.412718037 90.4090464197
49203 21 51.0695351292 85.6362669519 88.6800550493
49204 21 53.7520721623 89.3249190673 90.2113966271
49205 22 53.1355507318 85.5300056342 87.6326888746
49206 22 51.6376028955 87.4248432337 87.2644223183
49207 22 51.495515799 89.2107068587 89.8148810234
49208 22 52.4076232894 88.1640890031 91.810461087
49209 23 52.9113356098 87.1880937662 89.4964712298
49210 24 52.305477727 88.9146530994 93.6024983449
49211 20 45.5375858951 90.7020133626 88.4313324755
49212 20 48.0166736623 90.7389616201 87.0496547255
49213 21 45.819234511 91.9300050695 89.3481169606
49214 21 48.5520024662 92.192010308 86.5161967194
49215 22 45.9241862702 89.5492277291 89.1649658513
49216 22 44.1762998415 90.761598274 88.0899118684
49217 22 48.7753757292 90.5353252744 88.2687601426
49218 22 48.3361123947 89.8393884752 85.9839547318
49219 23 46.5060979406 90.9459654018 87.1954834177
49220 24 46.1295063339 87.9618557558 89.9425629765
49221 20 76.221383246 90.7552375613 68.4106151542
49222 20 74.8750635753 89.5542788833 66.1480722378
49223 21 75.4101117596 91.5405049577 69.5666746838
49224 21 75.434057972 90.1374065723 64.8212088646
49225 22 77.4025114668 91.528906011 68.0182153057
49226 22 76.4850722026 89.486743081 68.951275732
49227 22 75.6150576637 88.3920457207 66.3644300088
49228 22 73.4968468012 89.2676726531 65.8035648142
49229 23 75.1161158779 90.6687131609 67.2685866083
49230 24 76.516875766 88.0700814112 67.8477856218
49231 20 90.9428785854 87.1720049047 86.5435103679
49232 20 91.4441588686 89.9190844635 87.0129870877
49233 21 91.5210486601 86.5716658755 87.9174243069
49234 21 90.1695842953 90.6887306979 86.4195700105
49235 22 91.28645061 86.218459242 85.5878132877
49236 22 89.5152727482 87.2409438054 86.6154425452
49237 22 91.1522208645 89.7169447561 88.3948519175
49238 22 92.5709404119 90.8426973607 86.8230075663
49239 23 91.6819372749 88.5310460008 86.2667258264
49240 24 88.3150623893 58.3481547734 26.1058892759
49241 20 4.9274754767 86.4515606537 47.6951770522
49242 20 3.303919841 85.2725838504 45.6745282975
49243 21 6.4547387152 86.1165942992 47.6832974859
49244 21 4.1458467822 84.0158753966 45.2797899517
49245 22 4.3608482247 85.4089650135 48.5137446503
49246 22 4.8112615144 87.7986286436 48.0728911376
49247 22 95.9384700768 84.8826160392 46.6920552466
49248 22 96.2568798704 85.6595583851 44.4820817497
49249 23 4.3575743285 86.3535308465 46.2100441812
49250 24 95.7428781619 87.3057669508 45.2396613379
49251 20 58.549265542 77.1076737261 81.9588396237
49252 20 57.95135855 78.7279717416 84.2237210374
49253 21 57.9343342896 77.7471124303 80.6678955692
49254 21 58.9331532602 78.4610088888 85.3840834021
49255 22 57.6901016307 76.0271008896 82.4575943298
49256 22 59.876222455 76.6599918013 81.5496025946
49257 22 57.590762265 80.0814004441 84.2855509062
49258 22 56.8345857752 77.8874222688 84.4967639832
49259 23 58.7586078211 78.3324850767 82.9427857514
49260 24 54.9892307787 77.6984716863 84.3489709533
49261 20 37.7068938061 67.1651314874 52.6909556234
49262 20 35.3084374261 66.3296331688 51.5656707183
49263 21 38.8359203069 66.9931116253 51.6178659782
49264 21 35.7235674684 65.8144154417 50.1069160969
49265 22 37.6268236583 65.9282534907 53.3903533986
49266 22 38.0987324152 68.2886391345 53.4130835924
49267 22 35.254651988 65.1952748942 52.4560769537
49268 22 34.0514483526 66.918653871 51.3600700349
49269 23 36.3790014942 67.4450028453 51.8968954771
49270 24 30.7809195561 64.0442665187 58.1326388614
49271 20 3.3214801785 42.1549027676 72.5292701547
49272 20 3.6822995562 39.5220354174 71.7229562825
49273 21 4.0963997243 41.733131393 73.8584720251
49274 21 3.7162507955 38.7348972232 73.0535612513
49275 22 95.8396919504 43.0617720241 72.8877150222
49276 22 4.2743144703 42.6809711223 71.6251135551
49277 22 96.5825857756 38.7549147601 70.7085161499
49278 22 5.0491241067 39.803029254 71.4533743127
49279 23 96.32675417 40.7827660866 72.0582032567
49280 24 6.0563148977 43.6576211384 71.0432954246
49281 20 96.1279818987 46.656042388 19.1896431747
49282 20 4.2717982472 46.4056360962 21.3332968879
49283 21 94.8801597346 47.4029584285 19.7514437682
49284 21 3.8107494718 47.2813565684 22.5988916315
49285 22 95.8637317028 45.2565920584 19.3524961273
49286 22 96.2316240994 47.2463726487 17.8791492827
49287 22 3.740515979 45.0880331724 21.60952019
49288 22 5.7061389567 46.4195735401 21.3997102115
49289 23 3.7186697371 47.1811753437 20.1070824389
49290 24 5.9237688702 44.9702664479 16.3765244518
49291 20 23.4068892217 29.1424748016 42.37013806
49292 20 24.6489119125 28.3915365457 39.8755226706
49293 21 21.8892044682 29.1508933919 42.1906350065
49294 21 26.1307708872 28.2893909832 40.2752186307
49295 22 23.6795580079 30.2340853454 43.2586734975
49296 22 23.6542086971 27.9417032033 43.0099509237
49297 22 24.1257432945 27.0441879361 40.0108748949
49298 22 24.6181372879 28.9558627163 38.5043213885
49299 23 23.9178041138 29.4005513646 40.9021229893
49300 24 26.3495606955 30.8215158694 42.7261508903
49301 20 53.766290226 25.4506423299 66.0778237786
49302 20 53.0323762305 25.188075852 63.4073533916
49303 21 55.145348859 24.760598544 66.0506972098
49304 21 52.53745666 26.5850941444 63.3045530499
49305 22 53.2330192996 25.2879764571 67.4077739682
49306 22 54.0971408252 26.7912560672 65.6938425205
49307 22 54.2101370152 25.1058542867 62.648370705
49308 22 52.0468399246 24.3820425996 62.7496744084
49309 23 52.9712011409 24.7778098841 64.8987534354
49310 24 54.6600638975 25.0105371363 60.8292068784
49311 20 68.5882474098 12.9627860802 85.1142208127
49312 20 66.3170052834 13.7107310595 86.6692279833
49313 21 70.123611203 13.1591263142 85.5551678653
49314 21 65.5724277402 12.4340611926 86.7016863259
49315 22 68.3611325511 13.9279306895 84.0762086271
49316 22 68.4468150925 11.599423441 84.701148648
49317 22 66.147885158 14.2431601268 87.9904789628
49318 22 65.7422961847 14.4278078743 85.6355186328
49319 23 67.7838043355 13.282692512 86.4805580204
49320 24 68.4138890504 14.0626281345 82.1961503306
49321 20 85.5627445965 87.9524082267 78.5422015153
49322 20 87.6906836078 89.6080643214 77.8679659712
49323 21 86.0342791939 86.6036565187 79.3265335128
49324 21 87.041423215 90.698178227 77.1521987149
49325 22 84.3860127506 87.6443813611 77.7805997118
49326 22 85.2723967706 88.8455271189 79.6566357929
49327 22 87.7843170401 90.0739865253 79.2060541314
49328 22 88.9729284523 89.4779503312 77.2086968099
49329 23 86.7877430269 88.3847496091 77.6173725996
49330 24 83.3052528343 66.2389930131 30.7047780838
49331 20 91.8509638604 43.7383460655 5.4893789641
49332 20 90.0387219858 43.1698105997 7.5061458133
49333 21 91.462024988 42.8224969794 4.2999444008
49334 21 89.5247202773 44.5932071418 7.243158406
49335 22 93.248730472 43.7907284052 5.2177858866
49336 22 91.1744833589 44.9645605145 5.292178163
49337 22 89.0754481743 42.2978317232 6.8973601319
49338 22 90.044708539 43.1873960995 8.9462205182
49339 23 91.4285377065 43.0358614739 6.7984978196
49340 24 49.6652207252 41.6129326313 69.8792850041
49341 20 80.0495033408 28.875324869 30.7407909423
49342 20 81.9279714592 27.5119809378 32.4946639241
49343 21 80.6410496201 28.6461521327 29.2830652598
49344 21 82.9745893148 26.628028955 31.7775871092
49345 22 80.5279598903 30.1695428197 31.0267423933
49346 22 78.6458437161 28.7083561611 30.6754065576
49347 22 82.5838731844 28.7604578812 32.7550789844
49348 22 81.5607338418 26.8341908778 33.7118050034
49349 23 80.7210262281 27.6248835879 31.4604868741
49350 24 80.6231835007 34.6206385976 29.3253452911
49351 20 73.9491121808 71.8468031 13.0433239275
49352 20 73.9204889737 69.050334478 13.5265510114
49353 21 72.6483464376 72.6339412942 12.9044171873
49354 21 75.1568992709 68.6362333745 12.6421313291
49355 22 74.7535552551 72.2898080302 12.0105873919
49356 22 74.3715383347 72.1472532343 14.3762673936
49357 22 74.3705093959 69.1956954707 14.8642650121
49358 22 72.9923861617 68.0348654066 13.3673461146
49359 23 73.4491414561 70.346049067 12.7994654281
49360 24 68.6788875655 69.8354147946 21.5566701508
49361 20 37.2703431285 95.9281806886 95.5205338377
49362 20 35.4916820753 3.3001953631 93.494646849
49363 21 37.6901501654 94.4277072753 95.1208378777
49364 21 35.1210770217 95.7994697967 92.4094905577
49365 22 37.202152547 95.9615744302 3.3848296029
49366 22 38.3637309303 96.7182186195 95.0041936319
49367 22 34.3118634129 4.0509664631 93.6294378339
49368 22 36.5940497067 4.0565255389 92.954079811
49369 23 35.8355347196 96.0203174826 94.8445210356
49370 24 37.5007318834 5.549459637 93.2752958014
49371 20 10.7746167322 39.2088638578 68.0636756934
49372 20 8.772582416 40.4437775167 69.50914765
49373 21 10.2721765543 38.1880630124 67.0093875666
49374 21 7.9473828396 40.5734238075 68.170030551
49375 22 11.9671381119 38.6487469823 68.5248273627
49376 22 10.8570721473 40.4352653865 67.3576365859
49377 22 7.7895997491 40.117603912 70.5451019579
49378 22 9.5621713554 41.5963760704 69.7657275748
49379 23 9.7485963609 39.2378612244 69.1656691653
49380 24 6.7515314397 39.9227603163 72.1100243571
49381 20 38.1464377603 62.303395582 86.7026217248
49382 20 39.7795507411 62.9341350762 89.0448606295
49383 21 37.123017798 63.367037698 86.2574653771
49384 21 39.8481154822 64.370720743 89.4640128872
49385 22 37.388951712 61.3798762247 87.4345713825
49386 22 38.5555812495 61.6930477843 85.4299179494
49387 22 38.881006535 62.3024601831 89.9653867102
49388 22 41.1313892654 62.4948717416 89.1244630779
49389 23 39.2671392107 63.073322436 87.5380265035
49390 24 34.8751606447 56.0567080303 86.5505258599
49391 20 26.7535594906 27.9460060384 45.892195627
49392 20 28.072378433 28.2621708746 43.3758789826
49393 21 26.3532087513 26.4796746857 45.8966855418
49394 21 27.7198265787 26.8482218616 42.6836837792
49395 22 25.5788855223 28.6293149521 45.4977379009
49396 22 27.0657956513 28.2183942049 47.2921136561
49397 22 27.1320218951 29.2774528662 42.8770307367
49398 22 29.4186045638 28.4724485526 42.8814271116
49399 23 28.029724242 28.0313144202 44.9485651929
49400 24 29.4282391727 30.3622349979 42.167624193
49401 20 5.0913386601 44.0184045032 13.7734963272
49402 20 3.2886862147 45.6777086538 15.1599446118
49403 21 4.7512930894 42.5658235148 14.0889128443
49404 21 95.4429892669 45.1051509727 15.3502047529
49405 22 6.1506966491 44.2786324838 14.7482755455
49406 22 5.5429211985 43.91691372 12.4082254743
49407 22 4.0778535698 45.5050340125 16.3221777744
49408 22 96.6236497883 47.0830519966 14.9132799156
49409 23 3.7257871875 44.8345400641 13.922318296
49410 24 7.6458944125 46.6281675001 21.8175529106
49411 20 22.978195895 34.2039183772 19.6043990574
49412 20 23.4480467744 36.9705477735 19.9562961325
49413 21 21.4561147666 33.8928046952 19.3061003407
49414 21 21.9846151584 37.3952188848 20.2163370332
49415 22 23.0707068486 34.0751139454 21.0179739107
49416 22 23.6658076438 33.1766632793 18.8318530864
49417 22 24.0917883136 36.7171482051 21.2073921928
49418 22 23.9119111006 38.035499448 19.1757057307
49419 23 23.2765881517 35.617025531 19.1390380929
49420 24 25.0463629151 33.9323720696 17.6039549194
49421 20 28.4988268022 30.2847839671 39.140018497
49422 20 26.2496600904 32.0027376301 39.8581242506
49423 21 27.9483445357 29.00478408 38.5091854629
49424 21 26.4929573505 33.5020885648 39.796949161
49425 22 28.7073272223 29.9786278994 40.4754875402
49426 22 29.7014691983 30.5300455648 38.4359437272
49427 22 24.9496426664 31.8584055762 39.3632982201
49428 22 26.3419839642 31.6793702222 41.2377441231
49429 23 27.3878535007 31.4177391433 38.8570603226
49430 24 23.7960151739 30.6030066809 38.9449878214
49431 20 3.8393969992 24.3810136608 51.9930544865
49432 20 96.0422993573 24.0055445328 49.4747735044
49433 21 3.2767527694 23.291928694 52.9762522951
49434 21 95.5372774784 22.5224695395 49.164033982
49435 22 96.7575053743 25.6546528351 52.2545920255
49436 22 5.2320320122 24.3372369911 52.322876147
49437 22 94.8744538012 24.6161729501 50.021701255
49438 22 96.3906419164 24.456406814 48.1574512003
49439 23 3.7744232546 23.8865617897 50.4566617545
49440 24 10.8678385889 20.7365123746 51.6363868769
49441 20 49.8610932598 28.584228724 73.0142744966
49442 20 49.5864601359 30.7495836922 71.1525500189
49443 21 51.3620343726 28.175740014 73.1176360776
49444 21 50.9286640513 31.402398601 70.7679139815
49445 22 49.1678691175 27.3433285119 72.9415004603
49446 22 49.5140602592 29.2892388927 74.1674342896
49447 22 48.7310378202 30.8376047309 70.0242718373
49448 22 49.1626308836 31.5975228164 72.2440670229
49449 23 49.7909383406 29.2893324326 71.587884678
49450 24 48.8148495638 29.65657005 75.8837977745
49451 20 23.8803881568 59.2545563304 63.5348482649
49452 20 26.1455501902 58.7440155979 65.0222260933
49453 21 24.0993650449 59.9617179166 62.1909606314
49454 21 26.300452252 59.2335098546 66.451983348
49455 22 22.6443520192 59.8296395886 63.8812264863
49456 22 23.8240771416 57.8841969073 63.2383268061
49457 22 25.7391193579 57.3966669883 65.1983617106
49458 22 27.410115995 59.099373649 64.3013141429
49459 23 25.0046441231 59.7011157765 64.5020507519
49460 24 25.3716011208 53.1654834973 68.5252015223
49461 20 53.575936545 61.7594611079 28.037581593
49462 20 53.0265767572 59.3445417068 26.5729339584
49463 21 52.6427825788 63.022062575 28.1867777213
49464 21 52.1459922105 58.6122178896 27.545748839
49465 22 54.8154336587 62.2031208174 27.5130098766
49466 22 53.5818295582 61.2392857665 29.3518170807
49467 22 52.4836712219 58.9653309832 25.2985464649
49468 22 54.3825310368 58.9110778457 26.8053805909
49469 23 52.8150830606 60.8293004183 27.0641119332
49470 24 55.6190348739 57.8101133126 25.5455853206
49471 20 37.5039122397 59.3818641239 92.4647726341
49472 20 39.1812695895 58.8324107962 90.3968862337
49473 21 38.2775806894 58.9622441668 93.7592712045
49474 21 40.3297523879 59.686804173 91.1258426149
49475 22 36.0961368597 59.1772923793 92.7192946812
49476 22 37.8834971229 60.7320189302 92.2443926477
49477 22 39.9031169389 57.6921595083 89.8219900553
49478 22 38.6661454023 59.627686961 89.3101397643
49479 23 38.1203401304 58.4805137211 91.4222705337
49480 24 32.2456607306 57.5706511881 90.3087716551
49481 20 78.4976765266 85.9183832673 67.6641668131
49482 20 79.0722920854 84.3051007438 69.8958415651
49483 21 79.8822540133 85.9649661337 66.9719716097
49484 21 80.6157003093 84.0770504862 69.8734855308
49485 22 77.9810557011 87.1966058964 67.4087093671
49486 22 77.8115614161 84.8373427313 66.9850671946
49487 22 78.67717958 84.2395292792 71.2902407405
49488 22 78.5667089671 83.1834638945 69.1109483283
49489 23 78.6936426011 85.6482400581 69.2295569118
49490 24 40.9441224009 38.1540144916 68.5252015223
49491 20 60.1050210317 58.0350767537 27.1419371237
49492 20 57.5409990423 58.6823728088 27.7627613892
49493 21 59.9494641907 56.5456410477 27.2509110983
49494 21 56.7493709332 58.6067925758 29.1383590463
49495 22 61.3796891449 58.3036297847 27.7080405522
49496 22 60.147394603 58.184272882 25.7271462517
49497 22 57.2452259026 60.024015485 27.3094670709
49498 22 56.9863074806 57.6442670834 26.9454098098
49499 23 59.0581225564 58.5479559835 28.1659183253
49500 24 63.9932872774 60.708727497 23.2767752314
49501 20 38.5215327287 7.1566059436 28.5521445409
49502 20 41.1817137275 7.1139798146 29.6114838218
49503 21 37.4902554154 7.4342136361 29.7821941254
49504 21 41.2624386546 7.6086842433 31.1098993576
49505 22 38.5308867179 5.7504488037 28.2828431908
49506 22 38.0021992463 7.889621956 27.4454740744
49507 22 40.9952887221 5.7259974758 29.6953891053
49508 22 42.3916522352 7.471713779 28.9933722131
49509 23 39.9352011219 7.7663550859 28.8998323208
49510 24 42.9759024029 6.0872578941 27.9959563409
49511 20 27.9629367589 47.9867408967 24.799698219
49512 20 30.3267833787 47.7700089661 26.4363657156
49513 21 26.8280172449 47.3454313947 25.7481927275
49514 21 31.5410247214 47.0211285879 26.0499524202
49515 22 27.5898996682 47.5471034026 23.5183887734
49516 22 27.8539627843 49.4135984148 24.8464681651
49517 22 30.6180666035 49.173575051 26.3439483019
49518 22 30.034564755 47.2537623002 27.7397505757
49519 23 29.2382596513 47.3000645469 25.44184958
49520 24 33.5355758462 52.2399062624 23.5271815233
49521 20 10.1854837821 27.0404463404 60.2544977797
49522 20 12.5004932241 26.6954712174 61.8815306674
49523 21 10.449790102 27.5694144317 58.841297086
49524 21 12.1663126047 26.9192186399 63.4262484499
49525 22 8.9424695685 27.6176810162 60.7251905181
49526 22 10.1162642618 25.6203236946 60.1561873529
49527 22 12.5533339093 25.2955531884 61.7548776532
49528 22 13.7690064124 27.2625100449 61.594269658
49529 23 11.348306246 27.4749391405 61.1830682912
49530 24 19.6237618151 27.9935243037 60.6850619043
49531 20 10.2423466827 22.0548636175 59.9296337336
49532 20 12.7877729416 21.1206807125 60.3317617308
49533 21 9.2659866402 20.904790641 60.2675933647
49534 21 13.6310350712 20.1724668237 59.4175028229
49535 22 9.5564747759 22.7972897432 58.8992918192
49536 22 10.3599637433 22.7146004784 61.1835359906
49537 22 13.5407690751 22.3118177019 60.5530771161
49538 22 12.5530252277 20.2682516735 61.4860440025
49539 23 11.5492579968 21.4187923495 59.4039395385
49540 24 7.4058991107 28.2834044301 61.4180405008
49541 20 4.4228838814 92.1627323217 76.0149407036
49542 20 96.0671809687 93.540668476 77.4252416607
49543 21 3.5296808032 91.5038373199 74.976086659
49544 21 3.2524370744 93.7409373856 78.8033648948
49545 22 4.5418292085 91.1854275263 77.046966336
49546 22 5.6707060454 92.3669299067 75.3435113562
49547 22 95.4267133257 94.7796043503 77.2946599709
49548 22 95.2348630064 92.3621593722 77.5992258605
49549 23 3.6235583746 93.4411420306 76.3521520155
49550 24 95.1109226491 96.6393644902 77.889854306
49551 20 34.7830238508 60.6595255136 89.564942431
49552 20 33.7511852981 58.7458863957 87.8749571958
49553 21 33.9536991651 61.8550588779 88.9182076153
49554 21 33.2309164168 59.7666872411 86.8052349867
49555 22 35.9885659835 61.2385374474 90.0858660916
49556 22 34.0200189488 60.2076342937 90.6446734086
49557 22 34.137130894 57.6077865254 87.11522619
49558 22 32.6066311752 58.4940770055 88.726357296
49559 23 34.9116412027 59.5012210266 88.5302041418
49560 24 36.0182181294 56.0914113304 82.2997925313
49561 20 31.5055731022 60.9635301638 57.4861846653
49562 20 33.6984287988 59.5194613056 58.4775204446
49563 21 30.3008728285 59.9934279402 57.4570002189
49564 21 34.8174465311 60.5141645209 58.8709492318
49565 22 32.1218139131 60.9481896215 56.208149116
49566 22 30.8325535767 62.137362273 57.8654889289
49567 22 33.7733542526 58.4566610486 59.4527673623
49568 22 34.0077652229 59.1906685839 57.1305459946
49569 23 32.4009369519 60.3233431405 58.5823786639
49570 24 34.2192589195 64.0199461467 53.2694063177
49571 20 63.1059678584 15.2283222731 88.165024402
49572 20 61.8283064687 14.8141276297 85.755249695
49573 21 62.0283882984 15.9355773993 88.8979094586
49574 21 60.6958189919 13.8011841354 85.4525546033
49575 22 63.9065757971 16.2106782227 87.5033232034
49576 22 63.7065875073 14.4871121661 89.1683332874
49577 22 61.1978475942 16.1128354953 85.7679711204
49578 22 62.8991511564 14.5551156678 84.8394941488
49579 23 62.2747723749 14.3044287563 87.1451589556
49580 24 68.7329536232 22.5170442257 91.1907593002
49581 20 83.2852352974 29.7409430329 43.1482964245
49582 20 83.7147704831 29.3832464845 40.3517342626
49583 21 83.198617357 31.2960437434 43.3794334985
49584 21 84.2798449728 27.9857604926 39.9100388909
49585 22 83.9027856667 29.3365700782 44.4239934765
49586 22 81.9264748209 29.4162660665 43.0307167798
49587 22 82.2901579224 29.2629541829 40.0925352209
49588 22 84.4614994438 30.3656024341 39.6309158521
49589 23 84.1304617647 29.551431211 41.8750314097
49590 24 80.5322627253 28.2733021217 42.9327805125
49591 20 87.8974067699 65.4919834327 63.8045237746
49592 20 89.1915311807 65.9978471706 61.3182334356
49593 21 86.6111397101 66.2481599226 63.6126734553
49594 21 88.517856876 67.2935617596 60.7623258553
49595 22 88.2368630393 65.6140529923 65.1808697508
49596 22 87.5817096332 64.1927143279 63.369656815
49597 22 90.5889236327 66.0550000449 60.9574500708
49598 22 88.432642034 64.8937958211 60.776543919
49599 23 88.989672093 66.1346024933 62.8958772602
49600 24 87.982528072 63.3940707269 61.8490723248
49601 20 85.2839957173 87.0488128665 8.0604819234
49602 20 86.8752963661 85.8910696187 5.9744674919
49603 21 85.3822126043 88.6576054752 8.0730911009
49604 21 87.1002598073 84.3206283659 6.1853344712
49605 22 85.1187107275 86.8056091463 9.4581175791
49606 22 84.0907073105 86.7412537004 7.3275875128
49607 22 85.7325195012 85.9207217646 5.1097566649
49608 22 88.1339691577 86.2899237197 5.4539554069
49609 23 86.6462171697 86.5267667272 7.374376167
49610 24 5.4236204198 91.2430481 22.4971202286
49611 20 11.7735666586 92.0398209031 17.0147471374
49612 20 12.2796642463 89.7177866152 18.6322389561
49613 21 10.7284641493 91.6858659504 15.9664455637
49614 21 13.7061476047 89.4894557379 19.2177986823
49615 22 12.5052263427 92.9172250934 16.1932798027
49616 22 10.9593673736 92.6707474771 17.9968224673
49617 22 11.5126184209 90.3713498431 19.61085331
49618 22 11.8202711269 88.43610301 18.3158870401
49619 23 12.4605610441 90.6866728202 17.3640250955
49620 24 18.6397221475 26.0886779357 42.4519854658
49621 20 44.704238994 30.1228664134 62.8700602499
49622 20 43.6772645158 29.0773710365 65.232784391
49623 21 43.5388254751 29.9891043673 61.8985549278
49624 21 42.1779135812 29.1566928652 64.8705043879
49625 22 45.9138033421 29.8854621666 62.112200042
49626 22 44.5911492642 31.4522553636 63.3676924773
49627 22 43.744893858 27.9476897564 66.1102821212
49628 22 43.9938970514 30.2679467864 65.9350819029
49629 23 44.4274544525 28.9056317941 63.8341759205
49630 24 47.3917336414 26.5435624322 72.3330234605
49631 20 52.1193333412 94.4245269189 69.6392616403
49632 20 54.2271612756 94.7533196406 71.5100594875
49633 21 51.0883366476 95.5530857203 69.9644063062
49634 21 54.0034138531 96.0452926339 72.4288083103
49635 22 51.6434959087 93.2464855145 70.2646693606
49636 22 51.9924932471 94.3356640212 68.2063240292
49637 22 53.8469216132 93.6002533875 72.3002844982
49638 22 55.6055651294 94.8446145755 71.2279431722
49639 23 53.4767842591 94.9741673264 70.1220210248
49640 24 51.7521892637 91.3885026326 70.255689531
49641 20 76.4061245334 43.3360309885 18.8169802435
49642 20 78.0768405509 43.6932598374 21.0587573038
49643 21 77.2946599709 43.7408716426 17.6596111553
49644 21 79.4356945672 44.3923769929 20.6825398567
49645 22 75.142119968 43.8984863612 18.4432883735
49646 22 76.4199684375 41.9400416349 18.7932211108
49647 22 77.7197987817 44.158527262 22.3708413739
49648 22 78.4266797483 42.3227133345 21.0074039029
49649 23 77.0106728577 44.1079221802 20.0285089294
49650 24 77.1867149352 41.017925376 21.0894383885
49651 20 76.4244583523 9.4545443552 54.2889911445
49652 20 75.8700474103 6.7522704048 53.8605784375
49653 21 77.1544436723 10.1792820872 53.1215197479
49654 21 77.0950458406 6.3600015122 52.8545568951
49655 22 77.4678023117 8.9864333179 55.1793973798
49656 22 75.5933564087 10.50186376 54.7173103116
49657 22 76.3188518138 6.3776805519 55.1697627709
49658 22 74.7998575018 5.9600810564 53.365658867
49659 23 75.6144028845 8.2609846827 53.6768660889
49660 24 77.3668727678 7.454334067 56.220309302
49661 20 49.4243555024 42.3576037144 75.1688723772
49662 20 48.7984800826 43.0716872527 72.4964376524
49663 21 48.9465537322 40.934487792 75.2807460884
49664 21 49.0375680475 44.5931136019 72.3417226705
49665 22 48.260251542 43.0786092047 75.6418100729
49666 22 50.5946330957 42.6005268148 75.9697609356
49667 22 49.33951482 42.4879983243 71.3030557057
49668 22 47.3608654769 42.8946162364 72.6929649663
49669 23 49.7025431423 42.5574049245 73.6437044322
49670 24 46.2895530897 41.4868408564 72.2147890365
49671 20 48.1860744073 92.4991953145 60.6590578142