ITEM: TIMESTEP
20000000
ITEM: NUMBER OF ATOMS
4000
ITEM: BOX BOUNDS pp pp pp
3.23005382 96.76994618
3.23005382 96.76994618
3.23005382 96.76994618
ITEM: ATOMS id type x y z
49081 20 27.5174997915 39.0159845997 55.5995785763
49082 20 28.6075201571 41.474119431 54.5827999464
49083 21 28.5646788864 37.8924769526 55.4776960966
49084 21 29.9921911838 41.3048122259 53.8344808075
49085 22 26.7070701641 38.853225187 54.4555856928
49086 22 26.8622528455 38.8622050167 56.8542291525
49087 22 27.6329280186 41.4946982074 53.513358357
49088 22 28.6402591195 42.7020175981 55.3585262737
49089 23 28.35299811 40.3364872602 55.6714172137
49090 24 28.2613290155 43.3674603923 51.7859571648
49091 20 54.4885117349 40.0901967236 38.3004044232
49092 20 53.8052028212 38.5387440689 35.9474084309
49093 21 55.1963281004 41.346437478 37.8323308018
49094 21 53.1798886408 37.1266658538 36.3839591085
49095 22 55.1639632976 39.7268877817 39.4605797081
49096 22 53.0743756422 40.4525702666 38.3552188001
49097 22 52.6069568001 39.2677004501 35.7162713568
49098 22 54.5647467471 38.2775806894 34.7665608297
49099 23 54.7329314736 39.0408662111 37.1344296649
49100 24 50.9847879867 41.8427601468 43.8809008615
49101 20 15.9626104281 16.2094622041 85.5445978574
49102 20 17.2214702995 15.0264631854 87.678336342
49103 21 17.218477023 15.8614002646 84.6919817386
49104 21 18.8067843952 15.1872582604 87.342902288
49105 22 15.7797399386 17.5470826648 85.1213298445
49106 22 14.9782901408 15.1891290582 85.1856852904
49107 22 17.1302689045 15.1532097396 89.1096837749
49108 22 16.9435632793 13.7658260561 87.0781843927
49109 23 16.4947588758 16.2209676108 87.024024795
49110 24 21.5092454254 20.5145422101 88.0617563608
49111 20 79.9370683902 78.9481646482 19.1262231276
49112 20 82.0722099732 80.6786526568 19.9085907873
49113 21 78.9749170574 78.8654753833 20.4210958576
49114 21 81.8028150832 81.5890764292 21.0728818276
49115 22 80.7929584053 77.8674982718 19.357079582
49116 22 79.0470363144 78.8326428811 17.9796111271
49117 22 82.7166998316 79.5462587199 20.4506544636
49118 22 82.8887196936 81.5186408902 19.0591550248
49119 23 80.6525550269 80.3518242729 19.2687779236
49120 24 82.3282286586 77.7107254122 20.509397516
49121 20 55.6222152303 43.0212692507 51.5962582631
49122 20 52.7674712553 42.9707577088 51.0729961052
49123 21 55.6535510942 43.4307868994 53.1047761072
49124 21 51.9876291727 43.6981239118 52.1443084924
49125 22 56.7733171457 43.6078579157 51.0188365076
49126 22 55.661595525 41.6120907723 51.7602336944
49127 22 52.0351474381 43.3567033047 49.9067407273
49128 22 52.6091082176 41.5611115309 51.396457053
49129 23 54.1813267284 43.5820409054 51.1184564929
49130 24 53.0135747121 39.9253794332 50.7235310674
49131 20 88.513460501 45.1475245439 24.3092685633
49132 20 89.995974255 42.7847068629 24.9992188094
49133 21 89.2962023203 45.6928621164 23.0710810081
49134 21 89.369444056 42.2028887324 26.3375875892
49135 22 88.1095552458 46.2590590848 25.1014579117
49136 22 87.4651589273 44.449623407 23.7384881401
49137 22 89.4767343126 42.046864192 23.8692569097
49138 22 91.4290989459 42.6496352583 25.1942494849
49139 23 89.633600712 44.3239057917 24.9929516366
49140 24 82.8413885081 42.6104420434 21.0614699607
49141 20 9.1298486809 71.8284692811 73.8309712967
49142 20 8.7648373129 74.6287730387 73.7127368728
49143 21 8.449280486 71.3756426622 72.5451719364
49144 21 8.195516112 74.9702871857 72.3540699363
49145 22 8.8510343237 70.7681010613 74.7567356114
49146 22 10.4713884631 72.0120880898 73.4722458095
49147 22 8.1074295954 75.590456672 74.5710589251
49148 22 10.2032844236 74.7760983692 73.5768234092
49149 23 8.3672179385 73.199015784 74.1165485881
49150 24 11.54122292 75.4139468952 74.7600095077
49151 20 37.5116760508 41.7422047626 85.9485031126
49152 20 35.1850583081 40.1900037887 86.0963896824
49153 21 38.4423979798 41.8394862506 87.1758400403
49154 21 34.573400952 40.9280335394 87.3208268734
49155 22 36.7750493985 43.0238883677 86.0345598136
49156 22 38.2859057398 41.6449232745 84.7780384395
49157 22 34.4788321208 40.7691092623 84.9986055057
49158 22 34.8793699399 38.7753999966 86.2695320232
49159 23 36.7446489334 40.4024328843 86.2000318832
49160 24 33.9325591494 40.7301966671 83.1227565043
49161 20 26.8673975396 76.1702169249 48.0625082095
49162 20 24.334711414 77.185124757 48.821584436
49163 21 27.3654974664 75.7133680906 49.5310845196
49164 21 23.9077018054 76.4630903279 50.1853025267
49165 22 27.446690093 77.4846394923 47.9121896025
49166 22 27.44061 75.2692406817 47.1354343363
49167 22 25.0429019391 78.3524090737 49.2876937197
49168 22 23.059014362 77.4624705378 48.2443497603
49169 23 25.2992012442 76.1456159332 48.144636235
49170 24 87.8239779544 33.8750321156 22.2411015432
49171 20 82.0079480672 90.546082362 31.8432521137
49172 20 82.2990442122 88.1759685694 33.3018196552
49173 21 82.6741391806 90.1591078273 30.5100280279
49174 21 82.4528237952 87.2294383986 32.1223751525
49175 22 82.3366472489 91.880054767 32.1370609156
49176 22 80.6540516652 90.2897830569 31.5913491835
49177 22 83.1222888049 87.6589735843 34.341328479
49178 22 80.9688134029 88.1575412106 33.7557687529
49179 23 82.7192254087 89.5763542979 32.8005393721
49180 24 78.867533261 89.4934779533 31.9407206815
49181 20 9.7205343931 19.1410024306 79.6955483881
49182 20 8.8732781101 19.7497600501 77.116466476
49183 21 11.2745687489 19.5968223261 79.9207924489
49184 21 10.2407565045 19.683814426 76.4509301419
49185 22 9.7527401781 17.7935602812 79.3064224359
49186 22 9.2578018996 19.3766294195 81.0067905992
49187 22 8.1706438547 18.5413181807 76.8683051416
49188 22 8.2444281218 20.8133086263 76.471695998
49189 23 9.1358726499 20.1689123078 78.6390153039
49190 24 6.6433525542 17.691227639 88.8484268556
49191 20 96.7083033909 84.4489650982 21.6093331102
49192 20 5.4468370211 82.8503683378 21.5387104915
49193 21 96.0559561816 85.0276028723 20.3032355932
49194 21 6.1493496746 83.0323969683 22.8262871098
49195 22 96.5128050159 85.4940863155 22.5568922198
49196 22 95.9394990156 83.2599795264 21.8546882479
49197 22 4.6659753536 81.6747589706 21.8420603624
49198 22 6.4612865077 82.6978047733 20.5359628454
49199 23 4.657865445 84.173677195 21.3827794909
49200 24 92.1314899976 80.9014646805 18.5490819918
49201 20 39.1687352439 71.51660728 74.3906204727
49202 20 41.4067707085 73.3796413161 74.2532103709
49203 21 38.7207726994 71.6944266154 75.9348705557
49204 21 42.1649115361 73.3461540346 72.8919243173
49205 22 38.9690275738 70.1775837208 74.0821259077
49206 22 38.3043330986 72.3413485109 73.5715851752
49207 22 40.4734296626 74.4329005041 74.034981802
49208 22 42.4464666121 73.5941282893 75.2435172113
49209 23 40.6727631732 71.9475455641 74.3724737336
49210 24 43.9903425355 74.7624415449 75.4110471585
49211 20 38.1051866678 78.9974601715 71.1068090115
49212 20 39.212137754 76.6005939696 71.6128598292
49213 21 39.1934297755 79.6864750186 70.1325910326
49214 21 40.6071917087 76.6792610191 71.0224360286
49215 22 38.5188200718 79.4556185642 72.4169287439
49216 22 36.8810300965 79.6333443597 70.618063074
49217 22 39.4222283522 76.8627862879 72.997343776
49218 22 38.7898986799 75.2478200463 71.3512287503
49219 23 38.3013398221 77.5245810264 70.7304044847
49220 24 38.7439705927 80.2383603835 74.3645228428
49221 20 95.6155703684 58.885541455 3.786565668
49222 20 93.9648718879 57.423887097 5.4826815078
49223 21 3.4917653432 58.2631270113 3.8208386846
49224 21 94.7647315074 56.0393096103 5.815356135
49225 22 95.8944127875 60.2668450455 3.6358476456
49226 22 95.019721254 58.2683652452 96.1523022707
49227 22 93.2150561107 57.6257461847 6.6879149589
49228 22 93.1121622291 57.0482308893 4.40841326
49229 23 95.0007326559 58.5387890741 5.2124260508
49230 24 91.324708426 56.7731300659 3.9484523535
49231 20 86.1145364216 75.1795359249 14.2574717303
49232 20 88.3471465724 74.9415704387 15.8668255784
49233 21 85.373794014 74.1491004707 15.2248612971
49234 21 88.1534254553 73.5330467396 16.5257205802
49235 22 85.5654572534 74.9153792689 12.9456682799
49236 22 85.7735835139 76.4743151149 14.7835400849
49237 22 89.7736299309 75.0663526551 15.8517656557
49238 22 87.6839487356 75.9590973878 16.7444168485
49239 23 87.6144485956 74.8001381215 14.4972144744
49240 24 82.0149635591 92.2272748474 42.9802052379
49241 20 81.9233880045 83.9749049237 36.055072847
49242 20 79.5087492231 85.3335718603 35.4103023689
49243 21 82.0645397021 82.843259306 35.0152834035
49244 21 79.9206053692 85.1043055841 33.9449999551
49245 22 82.3419790228 83.3424817115 37.2876480086
49246 22 82.7210026666 85.1098244377 35.6316177542
49247 22 78.1153789865 85.0332152659 35.4419188525
49248 22 79.8041482032 86.7180558071 35.8255259511
49249 23 80.3349870923 84.2385938803 36.0968851788
49250 24 79.335887502 88.1664275004 34.6815330675
49251 20 40.6539616548 60.0101715809 68.1489840752
49252 20 42.3868817007 57.8682951256 67.8617230658
49253 21 40.1770952836 60.1357021164 69.6227050794
49254 21 42.8809594121 58.0115047008 66.3530181419
49255 22 39.7169725531 59.2149889559 67.5290952086
49256 22 40.7727573181 61.3282422041 67.6131875718
49257 22 43.4549201917 57.3454071273 68.6524157759
49258 22 41.3284778186 56.9610517096 67.8246812684
49259 23 42.0281562135 59.3845767808 68.2710536348
49260 24 40.1052566463 62.4823373961 66.408580838
49261 20 54.2291256134 12.5010544635 60.7128432523
49262 20 53.0364919858 10.0344542719 60.050954974
49263 21 53.3831508269 13.0191906353 61.8376604579
49264 21 52.5646767687 9.3150108978 61.2827818164
49265 22 53.7105404501 13.2162791885 59.5489263717
49266 22 55.5511249121 12.7950690532 61.0479966866
49267 22 51.8590118207 10.7933714806 59.7022382552
49268 22 53.3936272948 8.9216475885 59.1730830842
49269 23 54.1219288967 10.9316421495 60.6686924231
49270 24 49.8133879147 12.5370205521 67.493924209
49271 20 17.1349458991 22.2880585692 93.5527351221
49272 20 14.5199446683 23.1919345491 92.8595109799
49273 21 16.4347062649 21.0059072646 94.2189262355
49274 21 13.6657383712 22.6932733829 94.1508291939
49275 22 18.1805348159 22.5770968366 94.5140445959
49276 22 17.6643816898 21.8966876596 92.3071579155
49277 22 13.9011782803 24.4039309344 92.5850649357
49278 22 14.3146246045 22.2323087934 91.8202827757
49279 23 15.9944139915 23.3984706314 93.4428257486
49280 24 18.6069831852 21.3595815976 90.7574825187
49281 20 20.7304322816 88.5591079685 96.4930680986
49282 20 19.5473397231 90.2165413212 4.9391399013
49283 21 19.6675384847 87.7998446622 95.6138866503
49284 21 20.6934840241 91.2377163261 5.4298688846
49285 22 21.0665211149 87.5522445671 3.8975086573
49286 22 21.7860299669 88.8878071503 95.6033166425
49287 22 18.3783716882 91.0452112276 4.9674544267
49288 22 19.513478282 89.1585115987 5.8882424191
49289 23 19.9939927091 89.8176872202 3.460649298
49290 24 17.1314849231 92.3446674123 5.2107423327
49291 20 33.3225855113 20.8224755357 59.8985784893
49292 20 35.9388963006 21.2890525188 58.9616829274
49293 21 32.4094490821 22.0578568941 59.8740710375
49294 21 36.2987442666 20.1034343831 58.0496689769
49295 22 33.805157816 20.7294968827 61.2036470675
49296 22 32.5837139016 19.7069187794 59.4849450853
49297 22 36.6387617753 22.3529752545 58.3232731621
49298 22 36.4638421766 20.8904790375 60.2204492589
49299 23 34.3605976969 21.1940159882 58.8483125779
49300 24 32.1405218916 18.3416105105 58.1778186294
49301 20 63.6723519067 30.8964413232 78.8050486129
49302 20 63.870188779 31.8076134147 76.0785478304
49303 21 62.1719720332 30.5624103676 78.939652518
49304 21 62.3664414694 31.588355907 75.6404069746
49305 22 63.8287506067 31.5306417934 80.0356594368
49306 22 64.3758654371 29.625234186 78.6152561713
49307 22 64.3734333999 32.9545995748 75.3785888158
49308 22 64.5028926109 30.5747576334 75.7137422502
49309 23 63.7474644402 32.0340734941 77.6549756363
49310 24 64.4827815341 29.0313494094 76.7160221968
49311 20 61.6960410609 89.7965472045 6.3674285797
49312 20 59.0662605271 90.2518058606 7.3409169475
49313 21 62.3983385727 90.8705722486 7.4162165608
49314 21 58.6132468284 88.7816393724 7.6409087363
49315 22 62.380753073 89.928251373 5.1383331021
49316 22 61.8403731148 88.5503152186 6.974596021
49317 22 59.6517267134 90.88675465 8.5145713309
49318 22 57.9760530816 90.9528873539 6.7123849947
49319 23 60.1853717993 90.1913790902 6.2284937776
49320 24 60.2194203201 84.2102512929 4.4766506115
49321 20 80.2123562934 83.1678427324 17.2231540176
49322 20 79.5415817253 85.764790764 16.7353434789
49323 21 81.5765420836 83.2024524926 16.5337650109
49324 21 80.2716605852 86.3136828524 15.4229787891
49325 22 79.6745954523 81.8913973613 16.9676965716
49326 22 80.6040078227 83.4036568011 18.6054865469
49327 22 78.2850603512 86.3724259048 16.9123209553
49328 22 80.4379745138 86.1160330598 17.8123617996
49329 23 79.3750807169 84.2418677765 16.4759573574
49330 24 93.1589321753 25.4924546618 33.9892443242
49331 20 15.0921281898 29.842527356 5.5288434447
49332 20 14.7011314398 27.2548397737 6.6321371211
49333 21 13.7862177526 30.6196567817 4.9641524685
49334 21 13.5374016389 26.6392537421 5.8150287454
49335 22 15.6947121764 29.2850295975 4.369332293
49336 22 15.8447501638 30.7685722903 6.2146966435
49337 22 15.8679480571 26.7965878411 5.9285300508
49338 22 14.5250893624 26.6472981729 7.8516915297
49339 23 14.4655044509 28.8217265107 6.5372315463
49340 24 34.4871571712 73.1977997654 43.3496878128
49341 20 81.5027391085 44.9635315756 25.4397917024
49342 20 82.8700117152 43.0485828992 24.0096602881
49343 21 80.5931571952 43.9135462839 26.0646381833
49344 21 82.3867846312 41.7689571718 24.7531153526
49345 22 80.8524497769 45.435066173 24.2722267659
49346 22 81.6655920611 45.873955348 26.5392595972
49347 22 82.0342327769 43.0616784842 22.7825104402
49348 22 84.2339168857 42.8703894043 23.6731972953
49349 23 82.7874159902 44.1566564641 24.9958513732
49350 24 84.2411194574 42.9430699007 18.6481407378
49351 20 46.0924645365 66.8579464809 26.3921213465
49352 20 47.1260803471 66.348621767 23.8330569713
49353 21 45.9729205541 65.3610275834 26.9193121798
49354 21 47.9469864425 67.7435821817 23.6806804867
49355 22 45.0064663862 67.5623018703 26.9144481054
49356 22 47.3980008142 67.3403317058 26.8205340535
49357 22 48.0657821058 65.400501418 24.2752200425
49358 22 46.4897284594 66.1475109984 22.5627852331
49359 23 45.9239056505 66.7242779747 24.8541384363
49360 24 52.8145218212 61.9599170972 29.3693090405
49361 20 30.5852341013 92.9454741409 19.8898828089
49362 20 29.0103029337 92.0119460152 22.1598153768
49363 21 30.2392300395 92.0331795707 18.7152088406
49364 21 28.4069706279 90.6379385363 21.8540334687
49365 22 31.9598963594 93.3045737877 19.7947527383
49366 22 29.7119456662 94.1228607661 19.6848433648
49367 22 29.4317001487 92.0343020495 23.543083305
49368 22 27.9923082851 92.9492157366 21.7967870545
49369 23 30.1867541599 92.0497361317 21.1807333234
49370 24 29.7499228625 5.3729405061 20.8220078362
49371 20 13.2006580264 20.9178862259 85.9109936158
49372 20 15.1537709789 20.6072402434 87.9808443539
49373 21 12.8451128956 22.3587747278 85.4885674619
49374 21 16.2485618791 21.588660794 87.4277429704
49375 22 11.973152727 20.1992192329 85.9574829423
49376 22 14.1336249128 20.3562727122 84.9648376046
49377 22 15.2672348683 20.8069479136 89.3940450477
49378 22 15.7057498837 19.333601069 87.5570151016
49379 23 13.7460891388 20.9772840576 87.411560569
49380 24 14.6306023609 20.608456262 91.1199496016
49381 20 78.9469486296 51.1734579496 66.3479669877
49382 20 80.1367760604 53.5627474202 67.5042135972
49383 21 78.5861652648 51.492054823 64.8682594305
49384 21 79.9309882972 54.8658516607 66.6465463241
49385 22 77.8780682796 50.2494708929 66.6908842331
49386 22 80.218810546 50.4575036135 66.292123672
49387 22 80.1001084226 54.0420458286 68.8334154676
49388 22 81.378050432 53.0280733955 67.068130619
49389 23 78.8984949653 52.6204265446 67.0745848716
49390 24 86.9531215566 42.4835084095 70.0947073762
49391 20 34.4519861717 20.4775939526 54.4719551739
49392 20 33.9895249439 17.8744722881 55.6380234721
49393 21 33.2541143101 20.9767228182 53.6693828975
49394 21 35.423304414 17.2142677278 55.8797305539
49395 22 35.5644561115 20.7445568054 53.6391695122
49396 22 34.3951139171 21.1039370718 55.7685116219
49397 22 33.6132139569 18.4545131606 56.9113820268
49398 22 33.1632870746 16.7867904197 55.2643316021
49399 23 34.2998903067 18.9193128857 54.4987075831
49400 24 31.5010831874 15.9037738358 55.3233552742
49401 20 17.1327009417 96.5302034358 7.8486047132
49402 20 18.0817566896 95.5574820952 5.3702652652
49403 21 15.5928472336 96.1406097842 7.8619622099
49404 21 17.3803010368 95.7647664967 4.0389016878
49405 22 17.1919116935 4.1986500514 8.5810314244
49406 22 17.8699823733 95.4988325827 8.44757806
49407 22 19.5002891572 95.6807676733 5.0413041717
49408 22 17.6422127354 94.3479177471 5.8246072303
49409 23 17.4914264289 96.6976398432 6.3052151973
49410 24 21.6566642958 86.4205054095 5.0928540064
49411 20 30.1199666767 43.9064372521 47.837918928
49412 20 29.7259766501 41.5940375731 49.3762759977
49413 21 31.4411241164 43.9538619775 46.9704299662
49414 21 31.2744360282 41.4965690052 49.7793393939
49415 22 30.4017088325 44.6348323939 49.0164280318
49416 22 29.0800836934 44.4521489841 47.0761300446
49417 22 29.1018784883 42.2714534735 50.4309382841
49418 22 29.3474207057 40.2385509929 49.227454029
49419 23 29.7391657749 42.3808951476 48.0286467685
49420 24 29.5806156574 41.37945706 46.3394098524
49421 20 31.8219250182 13.7468374579 57.7519314995
49422 20 32.4396624674 15.5835867843 59.8411449954
49423 21 32.9808842845 12.7844055054 57.5365091274
49424 21 31.29894348 16.1077843411 60.7579294804
49425 22 31.8555058396 14.7154430433 56.6940888568
49426 22 30.6268593534 12.9221897669 57.485623426
49427 22 33.5579318805 15.5311109047 60.7820627726
49428 22 32.4789492221 16.6278661426 58.9007884575
49429 23 31.961112378 14.1786176011 59.2813087396
49430 24 35.5219890004 20.7601779674 62.0890021487
49431 20 94.9023286891 10.1732207022 62.9557427913
49432 20 94.9382480078 12.8355718265 62.0369004286
49433 21 94.0824515326 10.2055013191 64.3018753823
49434 21 95.172658978 12.3566008077 60.5047169918
49435 22 95.9675609833 9.2570348725 63.1577889588
49436 22 93.9933080152 9.7973774147 61.9362515045
49437 22 93.5030654393 13.0419208291 62.1259504062
49438 22 95.6692622666 14.0658084909 62.0600047821
49439 23 95.5158568431 11.5814544277 62.8062660433
49440 24 91.1619490133 18.0280647913 61.3116856432
49441 20 17.6282752914 44.2399069683 82.4039959714
49442 20 17.0851826764 44.8377204204 79.7892753603
49443 21 16.4136597891 43.7018655075 83.1848669928
49444 21 16.3079597107 43.5766155916 79.42456332
49445 22 18.2954018037 45.0473433192 83.3652119053
49446 22 18.2495672565 43.0469927211 81.9624876795
49447 22 16.5115960564 45.8675946353 79.0284218758
49448 22 18.3997923236 44.5297870948 79.3638559298
49449 23 16.9740572842 45.1041220339 81.2817978828
49450 24 19.7448024358 41.5553120576 81.6580153299
49451 20 14.586264452 77.3159870664 44.4542068617
49452 20 16.7293569258 78.9061652365 43.4284484021
49453 21 13.2812894136 77.7307429491 43.8229061282
49454 21 16.3349927396 79.8150923706 42.2414271681
49455 22 14.6878487751 77.9857326957 45.7167147889
49456 22 14.4666269296 75.9549816326 44.632961596
49457 22 16.6053230285 79.7329643451 44.6287523009
49458 22 18.0831597879 78.6588457611 43.1121900261
49459 23 15.8477434403 77.6264459691 43.4783987046
49460 24 18.6785412028 79.7056506965 51.0670095521
49461 20 50.3646185004 83.3787751897 29.0365876434
49462 20 48.6065362235 81.7890647191 27.5038429672
49463 21 51.2473544646 84.1865857001 28.119241919
49464 21 47.2446889306 81.4019966445 28.2454272338
49465 22 51.2111545263 82.2537709043 29.3741731149
49466 22 50.2523706296 84.286673385 30.1548570566
49467 22 48.2182521303 82.1496610041 26.1765118946
49468 22 49.3558843012 80.5924088761 27.6301218219
49469 23 49.0110027181 83.1023648078 28.2194231437
49470 24 51.3193801817 76.7409038082 36.2633861872
49471 20 84.0924845684 43.1760777725 71.3818162951
49472 20 85.2448025024 45.6561009387 71.4275573024
49473 21 83.9149458527 42.7008951193 72.8908018386
49474 21 85.701370717 45.5981062054 72.8924855567
49475 22 85.2926013874 42.5605852808 70.8876450437
49476 22 82.9303449457 42.6019299132 70.763985306
49477 22 86.3937530003 45.2615496727 70.6783027646
49478 22 84.9248960705 47.0521838321 71.261056294
49479 23 83.9914614847 44.7476415041 71.4035175501
49480 24 81.7384596373 43.4072148466 69.551801841
49481 20 89.1028553628 57.9941062808 6.0770339839
49482 20 89.6533376293 57.4834720085 8.7655014461
49483 21 89.5281812533 59.4690433036 6.3644820731
49484 21 89.880452488 56.0363163338 9.2494487872
49485 22 87.9302392722 58.1220688536 5.2659682852
49486 22 90.1756643883 57.3200578165 5.3881220306
49487 22 90.9544775321 57.9791398981 8.52924774
49488 22 88.8948226422 57.9717502466 9.8416311378
49489 23 88.7373014634 57.4314638283 7.4557465193
49490 24 25.4488650719 49.0462672575 72.5146779315
49491 20 52.099502884 72.591567723 39.2531082269
49492 20 50.4349604995 73.7291998939 37.3834328584
49493 21 51.113218259 71.3599279603 39.330278638
49494 21 48.9155920279 73.8335904137 37.7837835977
49495 22 52.7633555001 72.7705095371 40.5371303293
49496 22 53.0512712888 72.259594645 38.2010650575
49497 22 50.6467348158 74.8964842106 36.6180894591
49498 22 50.4529201588 72.5917548028 36.6044326348
49499 23 51.1746739682 73.7291998939 38.749863606
49500 24 54.012206603 72.1508077502 36.6421292114
49501 20 16.2157293769 32.2624979112 31.2830416983
49502 20 18.0268487727 30.6001069442 32.7726644842
49503 21 16.6229085283 33.7181657161 31.4689054644
49504 21 17.4778631445 29.1843806733 33.3736582926
49505 22 14.7925199146 32.427782901 31.2960437434
49506 22 16.8494621476 31.7876894176 30.1187506581
49507 22 18.6209206291 30.3391306445 31.5341963093
49508 22 18.9611252176 31.0894141211 33.7048830514
49509 23 16.7828617442 31.6204400901 32.6075665741
49510 24 18.9996636533 21.1221773508 26.9731911578
49511 20 35.510202974 78.045411147 51.7778191942
49512 20 34.6768560729 80.7289771189 52.1909848987
49513 21 34.912295982 77.2400326738 52.9795261913
49514 21 33.7955232071 80.7775243231 53.4910958626
49515 22 36.7590540769 77.4409563626 51.5826014388
49516 22 34.4885602696 77.9494392175 50.787325274
49517 22 35.3263970855 82.0317071998 52.3262435831
49518 22 33.7562364523 80.6809911542 51.0425021003
49519 23 35.6145934938 79.5286732202 52.3946212444
49520 24 42.4250459768 70.9502232317 46.3099447863
49521 20 6.6951643006 16.3486495639 70.9885745876
49522 20 6.2650211055 17.958003412 73.2756249558
49523 21 5.4850200051 15.3681644122 71.0006412337
49524 21 7.417759969 18.9754368212 73.2368059005
49525 22 7.8016009173 15.5750746541 70.5336900911
49526 22 6.2589690745 17.3600028801 70.033158127
49527 22 5.1417753701 18.5633000554 72.5972736564
49528 22 6.1337565746 17.6410902567 74.6500065942
49529 23 6.8509362833 16.7350628593 72.5158939501
49530 24 8.2624158431 22.7863455758 76.6859958914
49531 20 4.2412294104 20.3431771273 67.4284462844
49532 20 96.3941028925 21.3432121165 69.5323455433
49533 21 5.2035023451 21.5546122732 67.0965667463
49534 21 3.4807715997 22.7634283022 69.7671306732
49535 22 4.0174108976 19.8865153728 66.0786656376
49536 22 5.00453364 19.4626861205 68.1628279793
49537 22 94.9937171639 21.486982931 69.7601151812
49538 22 3.452196098 20.495460072 70.4803723524
49539 23 96.5622876189 21.0150741741 67.9841667849
49540 24 5.6143201983 13.0575419911 67.304505927
49541 20 73.9327426996 79.0746305827 11.7838466928
49542 20 71.7681360505 78.4108715065 10.0467360598
49543 21 73.4655109373 80.3470537384 12.3574987907
49544 21 71.4695567141 76.9342507657 9.6590693299
49545 22 74.865709586 79.3733969989 10.730456549
49546 22 74.4577821154 78.2468025353 12.8274338559
49547 22 70.4931873177 79.0134554931 10.109071044
49548 22 72.535911487 78.9186060422 8.9907455069
49549 23 72.6119594195 78.3563377492 11.3795111541
49550 24 74.4701293812 76.858389913 13.9508479632
49551 20 79.6189392163 46.5433268177 67.7583614847
49552 20 82.2899708426 46.490944478 68.3721702584
49553 21 79.57226281 45.8832157973 66.3343101634
49554 21 83.2742911299 46.1934876203 67.2997353925
49555 22 78.6509884102 47.6731951775 67.7756663648
49556 22 79.3347650233 45.5470334242 68.7549354979
49557 22 82.9578456741 47.4274658803 69.1916732554
49558 22 82.0024292135 45.218708402 69.0339649968
49559 23 81.037378144 47.233931843 67.773795567
49560 24 87.1588157799 45.8368200107 69.1378878173
49561 20 48.2873781108 10.0989500277 66.7225007167
49562 20 47.7688864874 12.4387194792 65.237180766
49563 21 46.986238208 9.9007764117 67.5427520328
49564 21 46.3587726101 12.9090941819 65.698613055
49565 22 49.1644081415 10.8716456625 67.4862539379
49566 22 48.6548963478 8.7963602566 66.2555495741
49567 22 48.5928793992 13.1917717367 66.0834361721
49568 22 47.7932068594 12.6411959302 63.8222028142
49569 23 47.8642971776 10.9500133843 65.4863710392
49570 24 50.2125226354 11.3056239931 59.749382361
49571 20 59.5344276883 91.3537057926 95.825286807
49572 20 62.3093821351 91.4242348715 95.5258656116
49573 21 59.4658629472 92.5028433703 94.8028022436
49574 21 62.7026238426 91.568005686 94.1193997901
49575 22 59.2304230382 91.9833228081 3.5450409889
49576 22 58.4209288097 90.4763951422 95.4561783918
49577 22 62.3088208957 92.7946878345 95.9314545848
49578 22 63.3605834454 90.6737643151 96.0730739819
49579 23 60.9150764996 90.6777865305 95.5365291593
49580 24 53.7352349817 86.9127123231 3.8764986621
49581 20 94.1766462042 45.6468404893 24.6667780319
49582 20 3.3535386381 46.5382756635 23.9890815118
49583 21 93.1063627558 46.4373461197 23.8973188774
49584 21 4.3306067775 45.5533941369 24.734500914
49585 22 94.3272454309 46.3941306894 25.8985113345
49586 22 93.7360733112 44.3761945915 24.8930510315
49587 22 4.0869802571 46.7830695618 22.8145946233
49588 22 96.7162542817 47.6622510101 24.8204640751
49589 23 95.5497182841 45.6624616514 23.710800332
49590 24 93.3809958798 42.6489804791 25.3889995408
49591 20 78.0494333624 55.4820924715 88.8400082653
49592 20 78.2555017453 52.7767317047 89.7763425878
49593 21 76.8668085033 55.6596311872 87.8718703793
49594 21 76.777571446 52.4198770153 89.5808442127
49595 22 79.1300061989 56.2706337641 88.3971904148
49596 22 77.5615292838 55.8826302906 90.0679064323
49597 22 79.0373081656 51.7022389611 89.3337118171
49598 22 78.3479191589 53.2282487651 91.1362255429
49599 23 78.463440926 53.9440160214 88.7416978384
49600 24 71.7200565459 55.9951587811 92.583942457
49601 20 95.1037200774 79.6986352046 19.221540278
49602 20 3.266952782 80.6398336015 17.2656211287
49603 21 95.1513318826 78.260927059 19.7544370447
49604 21 4.4201618705 81.0253114979 18.160423739
49605 22 93.7022118701 79.7946071342 18.9322213909
49606 22 95.6291336527 80.5182317415 20.3272753456
49607 22 3.8050444737 80.1312572068 16.0580211184
49608 22 96.0322905888 81.8572553006 17.1947178903
49609 23 96.0672745086 79.5130520582 18.0732445594
49610 24 67.0650438026 6.2563686655 94.1105135003
49611 20 73.317998527 6.0183844714 91.4992538652
49612 20 72.0109656111 7.0868158299 89.2433522811
49613 21 73.2781505329 4.4702711908 91.4514549802
49614 21 72.5302990935 8.3638505023 88.358839059
49615 22 72.2766189054 6.436657454 92.3386808592
49616 22 74.6420557034 6.2505224222 92.0137232731
49617 22 71.4525324537 6.1665610148 88.2819492674
49618 22 70.9695859895 7.5451051785 90.1153311577
49619 23 73.2520529029 6.6388065154 90.0496661533
49620 24 35.6920445247 27.0581253801 59.1404376617
49621 20 15.6105262733 50.2678982517 78.7517308742
49622 20 17.0122215603 51.9906224493 76.9387406805
49623 21 14.1246450832 50.6281203772 78.6999097739
49624 21 16.0637270518 53.2242265497 76.8694276203
49625 22 15.9419381119 51.0740250441 79.9040488082
49626 22 15.5982725474 48.8698510205 78.930953308
49627 22 18.0427505544 52.2428059991 77.8608569394
49628 22 17.4768342057 51.9112070807 75.6168349217
49629 23 16.0416516372 50.7765681864 77.3208511408
49630 24 20.0389853973 45.4818361192 83.9096140789
49631 20 46.7247942089 64.4357309682 80.8942621087
49632 20 45.587162038 66.7346609027 79.9591438048
49633 21 46.3809415646 63.5839567084 79.575723786
49634 21 46.0369018405 67.9404836552 80.8516079178
49635 22 46.434446383 63.4528137793 81.8937358586
49636 22 48.0433325316 64.8601214599 80.7315962359
49637 22 46.4869222626 66.735315682 78.858834051
49638 22 44.2947213453 67.0434360874 79.4984598349
49639 23 45.6990357493 65.5957191734 80.9536599404
49640 24 47.8688806323 66.4741523025 77.6681647611
49641 20 64.1787768839 33.6087240421 89.9159976471
49642 20 66.5299956183 32.2054385769 90.8344658502
49643 21 63.1683589666 32.5123429637 89.4465209273
49644 21 66.7698319023 31.8965698523 89.2693563712
49645 22 64.9330825759 33.9160025885 88.702036924
49646 22 63.3554387514 34.6653506662 90.4169037707
49647 22 67.5936377343 33.0691859429 91.2348165895
49648 22 66.6185778963 30.881007241 91.3433228646
49649 23 65.1268972329 32.938791333 91.037915116
49650 24 67.5614600113 34.1859587178 92.6406276317
49651 20 21.0993536171 62.4574557847 47.6850747439
49652 20 19.0172491531 64.1289201213 46.6118915588
49653 21 22.4112506074 62.8272189792 46.8647298879
49654 21 19.7772607785 64.5208522703 45.2431223139
49655 22 20.5414816991 61.2798820798 47.1624673652
49656 22 21.4695845111 62.3775727166 49.0525344303
49657 22 18.1700583479 63.0499374629 46.2665422762
49658 22 18.3283278458 65.3232374669 47.0186030108
49659 23 20.2255039427 63.6982624569 47.5489742005
49660 24 20.5434460368 64.0546494467 49.5293072616
49661 20 45.1975683863 24.7938052057 6.9555700069
49662 20 46.3253788685 23.7152902468 9.2955546002
49663 21 44.7330492809 26.1148691055 7.4449520157
49664 21 46.8438704919 22.3287484224 8.8241603126
49665 22 44.1149376722 24.319932111 6.0832356787
49666 22 46.5142359112 25.0789147977 6.4273502347
49667 22 47.5239990492 24.4927938321 9.1911734343
49668 22 45.9114648448 23.4864916701 10.6414252794
49669 23 45.1737157138 24.0570850135 8.3034985638
49670 24 29.0806449327 43.7723945863 84.2319525479
49671 20 46.3139670016 64.758350057 86.070666212