ITEM: TIMESTEP
11250000
ITEM: NUMBER OF ATOMS
4000
ITEM: BOX BOUNDS pp pp pp
3.23005382 96.76994618
3.23005382 96.76994618
3.23005382 96.76994618
ITEM: ATOMS id type x y z
49081 20 32.5217904928 41.0404684901 15.3875271699
49082 20 30.8037432899 39.8049935918 17.329695955
49083 21 33.9470578327 40.4261920169 15.5493511837
49084 21 29.4469471512 40.4208602431 17.1504735212
49085 22 32.4398495471 42.3048472151 16.0699006847
49086 22 32.3929860611 41.1124006673 13.9433647718
49087 22 30.3872101492 38.4327633709 17.4934843065
49088 22 31.4134363083 40.3667006454 18.4937999154
49089 23 31.5703027078 39.9502610446 15.9929173533
49090 24 24.5119695101 34.5934184889 18.6069831852
49091 20 48.3979422635 56.1133932051 50.3222449292
49092 20 47.7600937375 54.3246298435 52.45925731
49093 21 47.5285825039 55.3015604793 49.2123005664
49094 21 48.7310378202 54.6221802411 53.6688216581
49095 22 49.7259281154 55.6070617677 50.1351651444
49096 22 48.2511781724 57.477766075 49.8976673577
49097 22 46.5331309694 53.9140832559 53.0465007543
49098 22 48.3813857026 53.2691256981 51.7493830669
49099 23 47.7092080361 55.6566379107 51.6358256376
49100 24 45.6683546646 54.8231039298 54.369341912
49101 20 9.9210465064 41.6647537317 72.0185423424
49102 20 9.6606314461 42.3873494002 74.6143678953
49103 21 11.2610522344 42.4751833591 71.8618630227
49104 21 10.5672574988 43.6122542906 74.6729238679
49105 22 9.2158773199 41.8500562584 70.7873702791
49106 22 10.2746647155 40.3013162606 72.2289135603
49107 22 8.5949033905 42.7180129196 75.5483637205
49108 22 10.5206839864 41.3440989807 75.072526288
49109 23 9.1784707169 42.3641515069 73.1750695715
49110 24 3.4190670743 45.6728445794 71.7371743462
49111 20 81.2775885876 84.4365242925 80.8089537269
49112 20 79.4406521815 83.8772492761 82.9003186403
49113 21 81.2478429019 85.9401780622 80.3367643503
49114 21 78.0968580878 84.6198624815 82.8923677494
49115 22 81.6858902178 83.7330107621 79.6118301845
49116 22 82.2657440105 84.3945248808 81.844720955
49117 22 79.0659313727 82.579944509 83.2741975901
49118 22 80.1808333497 84.6178981438 83.8518064254
49119 23 79.8811315346 84.0947295258 81.368509363
49120 24 83.345474988 84.7064804219 83.3610961501
49121 20 46.2513888137 61.2400340856 49.7640923914
49122 20 49.0459866378 61.8751699548 49.5497924981
49123 21 45.7438413577 61.5359007652 51.2022682365
49124 21 49.7116165118 62.575409589 50.744764623
49125 22 46.6536103508 59.8755676758 49.7654019499
49126 22 45.1052445126 61.5389875816 48.9685356069
49127 22 49.3301608308 60.4867573325 49.6754165735
49128 22 49.5938497874 62.4672774734 48.4049577555
49129 23 47.4960306214 62.2584028938 49.6737328554
49130 24 49.803566226 52.2456121959 52.2526276878
49131 20 90.1471347211 34.1322668196 38.0882559473
49132 20 90.520920131 31.8479291083 36.5375516117
49133 21 91.0233228928 35.3098405245 37.5022285217
49134 21 89.6437965603 30.735833328 37.133494266
49135 22 90.0443343794 34.4560083871 39.4542189954
49136 22 88.9013704346 34.2617260306 37.4551779558
49137 22 89.7827033005 32.4044914678 35.4320036239
49138 22 91.7204757106 31.1099928975 36.1563765504
49139 23 90.8439133793 32.7695776677 37.7176508938
49140 24 86.3149924109 35.5363006039 33.9070227588
49141 20 55.9390348457 35.7958738052 12.1881915855
49142 20 55.8910488809 35.3065666283 9.3147770481
49143 21 54.5880381803 35.214710454 12.5264505443
49144 21 54.4625076448 34.9408256492 8.9283450447
49145 22 56.1180701997 36.8587676021 13.0627802251
49146 22 56.8178421344 34.7231583196 12.4732356995
49147 22 56.3068337025 36.0927694236 8.2493389661
49148 22 56.6490026287 34.0981247589 9.5179644023
49149 23 55.8276288339 36.2327051025 10.6612744446
49150 24 57.9112299362 37.2367623071 8.1589607221
49151 20 67.0115389841 14.2444696853 36.2620766287
49152 20 65.3881541522 12.8362266058 38.0687996497
49153 21 66.020109665 13.9054811154 35.0278177491
49154 21 65.8043131333 12.911619759 39.5234385158
49155 22 68.031030271 13.2697840069 36.0926758837
49156 22 67.5614600113 15.5629144681 35.9963297946
49157 22 63.9813141711 13.017693997 38.1246429654
49158 22 65.7885048915 11.5708657119 37.65142465
49159 23 66.09400618 14.1539230695 37.4971773675
49160 24 66.4528252071 9.9272762632 37.5105535721
49161 20 28.5746876549 47.4887345098 30.6980432115
49162 20 26.1243166347 48.8642386269 30.8442460633
49163 21 27.8836149302 46.3686878387 31.4039887791
49164 21 24.9872457031 47.9640107029 30.3113492965
49165 22 29.2597738266 48.2283544387 31.7466254049
49166 22 29.415798367 46.7710029157 29.747771445
49167 22 26.0287188647 48.5961532954 32.2228369969
49168 22 25.802539405 50.144238514 30.429116021
49169 23 27.3599786127 48.267173494 30.0844215176
49170 24 85.9581377215 37.5977327518 24.687543888
49171 20 15.0194476935 91.1084441949 45.6365511012
49172 20 13.898839783 93.4974530458 44.6724354306
49173 21 16.4404121983 90.8672048125 45.2375099204
49174 21 12.5596010821 93.006275071 44.9976736364
49175 22 14.2773021875 90.3168160858 44.6989072202
49176 22 14.9380679871 90.6993942456 46.9593922589
49177 22 13.8971560649 94.9367513695 44.9610059985
49178 22 14.0678663685 93.2933490006 43.3126460154
49179 23 14.8575301398 92.6755180116 45.6054958569
49180 24 14.6219031509 92.3056612772 41.9465894274
49181 20 15.0047619304 32.8619950814 66.1387182485
49182 20 12.7033999586 34.4740615863 66.5456167803
49183 21 14.5344433516 31.7384874342 67.1709309607
49184 21 11.6309463848 33.4917991766 67.1016179005
49185 22 15.9260363302 33.6767275438 66.888253406
49186 22 15.6236218582 32.084585036 65.1190398819
49187 22 13.3471414979 35.0845029238 67.7050437461
49188 22 11.9950129998 35.4262041506 65.7223721876
49189 23 13.6157880687 33.4563475574 65.7021675709
49190 24 11.4321366975 35.4375224776 73.0430847834
49191 20 83.524510342 81.93601589 7.7998143054
49192 20 80.7571326265 82.6556182819 8.5357955325
49193 21 84.4308183591 82.1040135366 9.0644362341
49194 21 79.7813244694 82.0593014681 7.5336091257
49195 22 83.6215112104 83.1423998817 7.1384404965
49196 22 84.0106371626 80.8035284131 7.1141481864
49197 22 80.1424819938 82.5985589475 9.8260286837
49198 22 81.030456192 83.9576000436 8.0635500319
49199 23 82.0221661308 81.7075914728 8.3174734237
49200 24 80.3203948691 86.7246035995 96.5386220262
49201 20 47.1777143677 85.7686258996 90.2162607015
49202 20 46.4611052523 88.1232120701 91.4793298681
49203 21 46.0031339393 84.7444576182 90.6927529132
49204 21 47.4045486067 89.363363963 91.0836561234
49205 22 48.2276061195 84.7998332344 90.2791195092
49206 22 46.872400159 86.2161207447 88.8937937034
49207 22 45.2899858 88.1727882131 90.6810604267
49208 22 46.130254653 88.337044264 92.8659652324
49209 23 47.2027830588 86.8500405952 91.3944891857
49210 24 45.1606201288 88.4568688661 94.4321036502
49211 20 39.4683435192 88.3890524442 88.7108296739
49212 20 41.8259229662 89.9145010088 88.2085204519
49213 21 38.6777443489 89.2150096937 89.8161905819
49214 21 41.9709097994 91.4173129195 88.7525484659
49215 22 40.1655898768 87.3754541706 89.4019959386
49216 22 38.449974711 87.9444573358 87.8183655609
49217 22 42.5270044595 89.0497247039 89.1779678964
49218 22 42.4764929176 90.055933326 86.9291753441
49219 23 40.3249818534 89.6078772416 88.0495026349
49220 24 40.6489105006 85.5164423498 89.6636270175
49221 20 87.0275793109 88.1219025116 68.1979989788
49222 20 85.0628674118 87.4961206317 66.396420652
49223 21 88.3956002367 87.9453927347 67.4142282207
49224 21 84.2609499146 88.643855111 67.0418459093
49225 22 87.3575880511 87.608836202 69.5032546368
49226 22 86.6812010895 89.4894557379 68.0715330444
49227 22 85.5100816371 88.0133026966 65.1979875511
49228 22 84.1067961719 86.4809321799 66.1362862113
49229 23 86.0136068777 87.0948344935 67.4999107621
49230 24 84.3984535563 84.6209849603 65.6762570207
49231 20 90.1700519947 87.7866555374 85.1930749419
49232 20 91.7005517135 89.1499059286 83.2754136087
49233 21 90.2847319028 89.0578626746 86.0066849257
49234 21 93.0073975497 88.4448957599 83.8724787416
49235 22 91.0881460382 86.8714612305 85.8373777205
49236 22 88.8118527577 87.3720867345 85.3560214344
49237 22 91.889595836 89.2567284857 81.8553845027
49238 22 91.6544365466 90.4546003473 83.9186874484
49239 23 90.4546003473 88.2187163002 83.6610785849
49240 24 83.5442472593 62.2713113989 19.1839372412
49241 20 14.8441539352 85.9602891391 44.1045547441
49242 20 12.8218214624 84.9142325228 42.4662970693
49243 21 16.1317305535 85.6934198262 43.2915995396
49244 21 13.4048556115 84.5440951687 41.1052916355
49245 22 14.7216166762 84.8049779285 44.9499682913
49246 22 14.9979335182 87.196044657 44.8330434258
49247 22 12.923779945 83.775664953 43.3029178666
49248 22 11.4798701046 85.3261822088 42.2059755489
49249 23 13.7328064741 86.1440950275 42.9493370735
49250 24 11.2723518534 87.2302802576 42.3750021344
49251 20 55.1885642893 76.8394013148 86.1554133545
49252 20 53.2815665038 78.877916189 86.4170444335
49253 21 55.8750535593 77.1527599542 84.7894503064
49254 21 52.3166089742 78.2329586312 87.4985526689
49255 22 54.1815138081 75.9368348934 85.7282166661
49256 22 56.2932704181 76.2920058647 86.9504088997
49257 22 53.0894355648 80.2556652636 86.6768047145
49258 22 52.8096577468 78.450345341 85.166041913
49259 23 54.7241387237 78.1893690414 86.7966293167
49260 24 50.9592515961 78.3941278657 84.3519642298
49261 20 40.0345404876 67.6232898802 56.4020573129
49262 20 39.2796735563 65.8493993615 54.3709320902
49263 21 41.4896470532 67.278408297 56.9071727316
49264 21 40.2840113806 64.6946493903 54.3612974813
49265 22 39.1924008367 66.9425065436 57.3332469413
49266 22 39.9783230123 69.0716615735 56.5476053854
49267 22 38.1868469938 65.3985370803 55.2234546691
49268 22 38.8734298038 66.0205773645 53.0261090577
49269 23 40.0398722615 67.1496038653 54.9354453406
49270 24 32.0311737574 63.0687389813 54.1317505854
49271 20 93.8898528942 40.1481914568 74.6938768038
49272 20 94.8766052187 37.5329096064 74.2571390463
49273 21 94.1851583344 40.3466831084 76.2271827193
49274 21 94.488788825 36.7205156412 75.430596996
49275 22 92.6692508388 40.8419768385 74.559834138
49276 22 94.9779089221 40.7597552731 74.000184962
49277 22 94.7453687497 36.5700099544 73.1714215157
49278 22 96.2166577167 37.8486067431 74.6240025042
49279 23 93.7632934198 38.640328392 74.3489016807
49280 24 95.8644800219 42.3960486101 73.4461481796
49281 20 7.6389911685 49.3344636658 19.4469714186
49282 20 8.25814107 49.8737211453 16.7466618059
49283 21 7.5566480012 50.7153930967 20.1282224546
49284 21 8.1097493847 51.3405201974 16.3100175884
49285 22 8.9727671396 48.9447764743 19.724691359
49286 22 6.6718541594 48.5230986395 20.0604060326
49287 22 9.6908448313 49.7828003699 17.0056737678
49288 22 7.882681296 49.0577726642 15.6885385435
49289 23 7.3154273268 49.6092838696 17.915349221
49290 24 6.0527697358 49.150938397 16.1387460455
49291 20 27.5445328204 26.8655267417 41.3020060291
49292 20 28.3581428041 26.0916712122 38.7570661777
49293 21 25.9885902509 26.8729163932 41.4757096092
49294 21 29.6818258209 25.6734543535 39.4383172137
49295 22 27.9147637143 28.047122662 42.0226373598
49296 22 27.9570437457 25.5925423466 41.8894365531
49297 22 27.5624924797 24.9250416747 38.5774695843
49298 22 28.7969384392 26.7502855943 37.5294486303
49299 23 27.7301159668 27.1063919646 39.7651455976
49300 24 29.4083151756 29.0296656914 42.2751015293
49301 20 49.5138731794 21.7464625924 67.2545556245
49302 20 49.6354750395 21.1594997679 64.4879262282
49303 21 50.5738672396 20.7291227231 67.7706152106
49304 21 48.6935283234 22.0521509607 63.5768476766
49305 22 48.2416371034 21.1400434703 67.292345741
49306 22 49.6622274487 22.7921450491 68.1923865853
49307 22 50.7268985035 20.889169479 63.6873182894
49308 22 48.8853786426 20.0061528951 64.797449732
49309 23 49.9941069868 22.0274564291 65.7929948064
49310 24 51.6588364511 22.7667021984 62.6411681333
49311 20 70.9202904662 19.6954133727 82.6649722711
49312 20 68.7183614 20.1720926641 84.4757175074
49313 21 72.2627750013 19.2906662584 83.2077842665
49314 21 67.4075868884 19.8015811505 83.6939110871
49315 22 71.0213135499 21.1035629122 82.3992254369
49316 22 70.7869025797 18.9488714917 81.4497019896
49317 22 68.3721702584 19.8808094393 85.8131508884
49318 22 68.8414598984 21.5376815527 84.2079127956
49319 23 69.8790043844 19.3108708752 83.8212188806
49320 24 71.1902465955 22.3244455873 80.9977172297
49321 20 85.9146416716 84.3068780017 77.7685330656
49322 20 87.2537587706 86.3055448818 76.3139877394
49323 21 86.8331098747 83.0527886648 77.5132626994
49324 21 86.5914963327 87.7034050332 76.2312984746
49325 22 84.5677607615 83.8585412976 77.7446803931
49326 22 86.3346357883 84.8981436613 79.0330053306
49327 22 88.1379913731 86.4320108162 77.437121227
49328 22 87.939032022 86.2241651754 75.1325788989
49329 23 86.1658898225 85.2032707902 76.5141631091
49330 24 79.7205235394 70.1512990111 30.947046405
49331 20 87.6209028481 43.9958613892 93.56330513
49332 20 86.9590145698 41.1949028524 93.8562720728
49333 21 88.2803590893 44.2568376889 94.9609782016
49334 21 86.8505082947 41.0830291411 95.3985578181
49335 22 86.8845568155 45.1990650246 93.3112151201
49336 22 88.7990377924 43.843110745 92.6949743092
49337 22 85.8358810822 40.5080394228 93.3693033932
49338 22 88.2569741162 40.7287935687 93.4011069566
49339 23 86.7180558071 42.7083783107 93.5912735578
49340 24 38.7296589892 46.4812163292 80.6243059794
49341 20 84.8377168909 32.5462979446 34.727180535
49342 20 85.7622651869 31.4811591903 37.1654849092
49343 21 85.6447790821 31.7271691072 33.8058125953
49344 21 86.4010491119 30.0776866454 37.0890628171
49345 22 85.5961383381 33.7187269555 34.8752541846
49346 22 83.6451768032 32.8087708826 33.9404165004
49347 22 86.9159862193 32.3171252084 37.0382706556
49348 22 85.1774537799 31.4302734889 38.4814976548
49349 23 84.7210726451 31.5972421968 36.0327168127
49350 24 84.8451065423 38.18151522 32.3442517771
49351 20 74.7385888723 78.7670714166 14.7573489151
49352 20 73.0876097722 79.0414239209 16.8820140301
49353 21 76.0305618656 79.0333794901 15.6248378768
49354 21 73.7205006839 79.9707427515 18.0230136372
49355 22 75.1808454834 79.3112865103 13.4936249693
49356 22 74.5394424415 77.3964313738 14.7775535318
49357 22 71.7132281337 79.414086852 16.9763022416
49358 22 73.2999453278 77.6877145986 17.3075270005
49359 23 73.7106789952 79.5442943822 15.5894797975
49360 24 66.9646754981 74.6125906373 22.4045157352
49361 20 31.1070931608 8.7615353547 90.4295316561
49362 20 29.0743777599 8.5764947396 88.5411483092
49363 21 32.1672743008 7.56984648 90.2437614299
49364 21 29.262860643 7.1868941607 88.0690524724
49365 22 30.1858187609 8.2684678741 91.3901863507
49366 22 31.8961956927 9.8824238849 90.9018145727
49367 22 28.1647958466 8.3541597695 89.555401362
49368 22 28.5437259506 9.2619176549 87.3881755959
49369 23 30.5163887405 8.9911383745 89.002767678
49370 24 32.0406212865 11.6018741862 91.3591311064
49371 20 7.9394600107 38.5504365554 70.2584957277
49372 20 6.1713034874 39.5551485393 72.1389281838
49373 21 7.4104264415 37.3614509837 69.444043885
49374 21 4.9558367721 40.0526872267 71.2133509489
49375 22 9.2971541323 38.1930206267 70.6012258933
49376 22 7.8470332431 39.753546651 69.5301005859
49377 22 5.4570983472 39.0131784029 73.2296968687
49378 22 6.8480365466 40.7811759084 72.3307785031
49379 23 7.0092993211 38.4626025965 71.4646926397
49380 24 4.3651697678 38.8081389589 74.8182848606
49381 20 33.4438132118 61.7603965068 95.6735651016
49382 20 33.2370900497 62.5374323927 4.8403711289
49383 21 32.3137577722 62.8200164075 95.4416797085
49384 21 33.076107895 64.1089961242 4.8101858057
49385 22 32.7227141816 60.4873185718 95.6236147991
49386 22 34.2797792299 62.0746905452 94.5831705764
49387 22 31.8454970711 62.1379235124 4.7837140161
49388 22 34.0106649595 62.3348249858 6.0057846479
49389 23 33.9722200638 62.2074236524 3.5473065251
49390 24 30.0766577066 57.8973860321 90.5238198676
49391 20 30.8319923374 26.019739035 44.9824266339
49392 20 32.0120916194 27.1701861711 42.6527220748
49393 21 31.1933369415 24.5082279144 45.0038472693
49394 21 32.3186218466 25.8562313032 41.8373348331
49395 22 29.5942724817 26.1992420884 44.3082846297
49396 22 30.8096363031 26.3514314933 46.3667235009
49397 22 30.7889639869 27.6355471356 42.0282497534
49398 22 33.0617027515 28.0477774413 42.4232687188
49399 23 32.0123722391 26.7287714191 44.209787123
49400 24 32.6722026398 29.5573242242 41.5712138393
49401 20 4.7743693809 46.764642203 17.1609499892
49402 20 4.8787692548 45.6337449044 19.6242295146
49403 21 6.3086106954 46.6132946572 17.1815287655
49404 21 3.5671528841 44.8098455325 19.7353549067
49405 22 4.632590966 48.0356622604 16.4846565674
49406 22 4.1769581504 45.6780828134 16.4595878763
49407 22 5.8268147718 44.6681325956 19.1223879921
49408 22 5.0870545331 46.0561710583 20.9815868926
49409 23 4.4651826207 46.7632391046 18.6987458196
49410 24 10.5739362471 48.7132652407 18.6509469346
49411 20 26.3050357067 34.0118809781 16.0083514355
49412 20 26.1522850625 36.6118222863 17.1140865031
49413 21 25.5757987059 34.052851451 14.646223523
49414 21 25.1956525833 37.3588318667 16.1715785477
49415 22 25.2887247762 33.5525065668 16.9206460057
49416 22 27.4957985365 33.214266316 15.8860947962
49417 22 25.3858191845 36.1667594784 18.3012948169
49418 22 27.1977804394 37.4339444002 17.5343612395
49419 23 26.6226036413 35.5250758168 16.1505320719
49420 24 29.0393938402 33.8806445092 17.1820900048
49421 20 32.028086941 29.1320918735 38.7218951781
49422 20 29.7821941254 30.4610131243 39.713511577
49423 21 31.3062395916 27.9853863331 37.9977093315
49424 21 30.1999432847 31.9759852209 39.412032504
49425 22 33.1930327604 28.5418551527 39.238235384
49426 22 32.3387329235 30.1455966072 37.7889282917
49427 22 28.9371547378 30.0068769469 38.6391123734
49428 22 29.1026268074 30.4582069275 40.971903749
49429 23 31.0719221613 29.6159737367 39.8424095487
49430 24 27.9141089351 28.4325070185 38.1542015714
49431 20 9.2451740142 18.9082751785 49.040561324
49432 20 7.9204339966 19.490935168 46.6269514815
49433 21 10.5599800952 18.2763196657 48.4866180815
49434 21 9.0587022387 19.0858138942 45.6529205823
49435 22 8.4087590047 17.7958052386 49.3024730227
49436 22 9.7539468427 19.5050596917 50.2495644328
49437 22 7.1600107956 18.3037268541 46.7332127992
49438 22 7.3076167458 20.6182779507 45.9897577347
49439 23 8.6684257458 19.9163545984 47.9510086578
49440 24 14.4929116394 22.9240362974 52.8942178095
49441 20 48.6265537605 23.0480701946 76.0606817109
49442 20 47.4226953458 25.1353193527 74.3843532999
49443 21 50.1627594127 22.8784823698 75.8231839242
49444 21 48.6471325368 26.0479880825 73.9798868054
49445 22 48.1724175831 21.7263515156 76.2197930678
49446 22 48.4307747657 23.7268891935 77.2425582509
49447 22 46.5659634717 25.2652462632 73.2529883019
49448 22 46.937597464 25.8454742155 75.5286268032
49449 23 48.1210641821 23.7635568313 74.7031372531
49450 24 48.122093121 24.5570557382 78.8069194107
49451 20 18.8397104374 58.3298209545 58.227768932
49452 20 20.5321277098 59.8412385353 59.8890374203
49453 21 18.8677724051 56.8061496479 58.4298150995
49454 21 19.9389912524 61.1217996617 59.3154508003
49455 22 18.6426218841 58.4307504984 56.7775264408
49456 22 17.6786932934 58.696123173 58.944658667
49457 22 19.848070477 59.474749237 61.1176839064
49458 22 21.9390612308 60.134299018 60.1224194517
49459 23 20.2438377616 58.8692655138 58.6673128862
49460 24 16.9622712578 62.7066460579 66.4842546109
49461 20 54.2045246217 61.5532056453 26.1543429401
49462 20 55.0033553024 61.3476985017 23.4299000352
49463 21 53.7331771041 60.1774209084 26.5187743608
49464 21 54.406757869 59.9644305735 22.9278714329
49465 22 53.3019582003 62.3905747617 26.8932145499
49466 22 55.5721713879 61.6069910834 26.6527234866
49467 22 54.8365736743 62.2778591914 22.3969390039
49468 22 56.3530424093 61.0529543009 23.8042466845
49469 23 54.0140774008 61.7227934701 24.5231007573
49470 24 58.0283418815 60.6422206336 22.6659597343
49471 20 28.9124602062 58.3809872756 5.2542570907
49472 20 29.9647839953 56.9113820268 96.7110160478
49473 21 28.8870173555 57.5633550765 6.5388123705
49474 21 30.8319923374 55.6991050218 3.9001586425
49475 22 27.7463919081 59.1580231615 5.2795689855
49476 22 30.07366443 59.2466054395 5.2227715629
49477 22 29.3810015271 56.1610050103 95.5729161774
49478 22 30.9829657236 57.8832615084 96.379697749
49479 23 28.8593295474 57.252709094 4.172935935
49480 24 27.7434921714 55.8535393841 94.6145064403
49481 20 83.9167231107 81.9862468121 63.9871136445
49482 20 86.3586755406 83.2353785347 63.5007062042
49483 21 82.9556942566 82.0868957363 62.8373212876
49484 21 87.4891051398 82.5966881497 64.2276982476
49485 22 83.6115024419 83.1801899982 64.7211211798
49486 22 83.4735311007 80.752362092 64.5803436418
49487 22 86.8913852276 83.5364834482 62.1879673548
49488 22 85.9547702854 84.3493451128 64.2915859941
49489 23 85.3275853071 82.0897019331 63.3705922139
49490 24 39.8802932051 33.0922902963 73.9265690667
49491 20 62.5512762967 60.6351116017 25.0741442631
49492 20 59.6913876277 60.5046234519 25.2364359764
49493 21 62.7962572748 59.0650445085 25.3105195711
49494 21 59.4619342718 59.0535391017 25.8783067178
49495 22 63.5690838655 61.1999990117 25.7940272747
49496 22 62.5364034538 60.8628812396 23.6858251807
49497 22 58.6623552719 61.4287975884 25.7563306981
49498 22 59.4697916227 60.2995840078 23.8773013404
49499 23 61.1721241238 60.9487508608 25.6944072894
49500 24 65.31191914 64.8797648373 24.0739221941
49501 20 33.91469303 5.6405394302 25.627806886
49502 20 34.7109981336 6.6124843897 28.2144655295
49503 21 33.1179202269 4.2196123413 25.5128463583
49504 21 34.7101562746 8.129467594 28.3415862432
49505 22 35.2740147458 5.3549434308 25.474027303
49506 22 33.4208959382 6.5570152335 24.6704260877
49507 22 34.2763182538 6.0905598523 29.4368448428
49508 22 36.0806092376 6.3162622586 27.8598557975
49509 23 33.6580195653 6.290688452 27.0066784393
49510 24 41.0611408063 6.6177881016 25.4771141194
49511 20 28.719768028 46.7755863704 23.9867430145
49512 20 30.6587564567 46.2253847236 25.9408849058
49513 21 27.7350735811 47.7356798256 24.653682447
49514 21 31.7999431435 45.2894245606 25.3526125227
49515 22 27.8681808479 46.0107106706 23.15638939
49516 22 29.618312234 47.6072495534 23.3056790582
49517 22 31.1031644853 47.5630051843 25.811145075
49518 22 30.4956228844 45.8486060372 27.29281697
49519 23 29.3308641448 45.9257764483 25.1573012275
49520 24 35.8490044641 48.8231746142 25.5403470867
49521 20 11.0163986459 30.6362133427 59.937958784
49522 20 12.9830842368 30.5418315913 61.9894757032
49523 21 12.014862165 30.695891794 58.7250269997
49524 21 12.1786692245 29.5860409711 62.8466752768
49525 22 9.9310178589 31.3927639921 59.5029047446
49526 22 10.6222963715 29.2805396827 60.1741470122
49527 22 13.8854635784 29.7527290593 61.1768011184
49528 22 13.6632127942 31.3757397316 62.8956901804
49529 23 11.7540635911 31.2375813106 61.1838166103
49530 24 21.5062521489 32.0250936644 62.311159393
49531 20 10.8626003549 25.5257548635 59.8374033997
49532 20 12.3281366185 26.5031531987 61.9624426743
49533 21 10.2311873735 24.1422063156 60.3892887646
49534 21 12.4769024633 25.5364184112 63.1855703068
49535 22 11.1454369275 25.2344716386 58.4433783839
49536 22 9.8013528601 26.4574121914 59.9684527889
49537 22 13.5552677584 27.2656904012 62.0916212657
49538 22 11.184957532 27.2803761643 62.2682245825
49539 23 12.1838700425 25.6757928508 60.6914226169
49540 24 8.2848560632 31.9279992561 60.1802271052
49541 20 3.7350111563 88.9749863299 70.80402038
49542 20 3.3188002606 91.3519285347 72.0964610727
49543 21 95.8127524614 88.5738872715 70.4286447919
49544 21 4.5140291525 91.2208791455 73.0045463477
49545 22 4.1030709894 88.3170267271 72.0740114985
49546 22 4.4016222638 88.4698709112 69.7065168229
49547 22 96.6736936307 92.7280874311 71.9195771363
49548 22 95.8089173259 90.7577631384 72.8301879884
49549 23 3.6805952593 90.5109113625 70.8122518905
49550 24 3.8397047454 94.3347286223 72.2616525226
49551 20 28.7793529394 60.2993969281 95.1262631914
49552 20 28.1407560943 58.5872427383 93.0319050015
49553 21 28.5820773064 61.7224193105 94.4528695063
49554 21 26.9413875944 59.5878389669 93.0046848928
49555 22 29.9165174108 60.484512375 95.9975872887
49556 22 27.6258189868 60.0550707292 95.8655089607
49557 22 28.6538224039 58.5860267197 91.6866142696
49558 22 27.5914898463 57.372627236 93.4999786228
49559 23 29.1103906185 59.2742932477 94.0116418341
49560 24 35.0367975787 59.0025598604 88.5114026234
49561 20 34.1095366258 60.6734629576 54.709172341
49562 20 33.448864366 58.6189527618 56.5080380109
49563 21 34.6047368159 60.2128725276 53.3452671705
49564 21 32.8947340437 59.6179588122 57.5263132792
49565 22 35.2845847536 60.8839277154 55.43130031
49566 22 33.3508345588 61.8574909151 54.3327678141
49567 22 32.6254326936 57.4602741151 56.6611628147
49568 22 34.8033220074 58.443284844 56.9265354893
49569 23 33.2112730394 59.5099202365 55.2027823529
49570 24 36.1823806405 62.5677393178 55.4848051284
49571 20 65.6612906379 20.6907713673 87.7049016715
49572 20 66.0978413156 22.4929109335 85.7079185095
49573 21 64.1589464267 20.1916425016 87.7549455139
49574 21 65.0948130498 23.6294206256 86.1858138195
49575 22 65.881109385 21.6299118866 88.7454394341
49576 22 66.404184463 19.4894385297 87.9221948414
49577 22 67.3399575462 22.8164654211 86.2675676855
49578 22 66.1522815329 22.5955241954 84.3330691716
49579 23 65.6000220084 21.1519230366 86.2465212097
49580 24 73.8508952938 20.0885615402 94.7574353958
49581 20 87.3001545572 35.1967507947 45.459386545
49582 20 89.569338806 34.4057774649 44.0905237602
49583 21 86.7988742741 36.5325004576 44.9832684929
49584 21 90.2476901054 35.6615505198 44.584320852
49585 22 88.1350916364 35.4673617033 46.5477231927
49586 22 86.0904966692 34.5596505878 45.8655367577
49587 22 90.1971785635 33.4231408956 44.8560542393
49588 22 89.87867523 34.4371133288 42.6628243832
49589 23 88.0632529991 34.4869700914 44.3049171935
49590 24 85.9987340348 33.2241815446 47.224390774
49591 20 82.4848144384 62.3093821351 64.4912936643
49592 20 81.1528063712 61.9281135338 62.0847928535
49593 21 81.5326718741 62.576251448 65.7243365254
49594 21 79.6555133142 62.5380871719 61.9337259274
49595 22 83.6059835883 63.0561110958 64.9450556821
49596 22 82.6591727978 60.885985593 64.5420858258
49597 22 81.8096434954 62.1229571296 60.8249975832
49598 22 80.9043644171 60.5433489673 62.4739188058
49599 23 81.7469717675 62.8127202959 63.1764033974
49600 24 81.9166531322 59.3865411185 63.4143688835
49601 20 79.9101289012 89.0260591112 5.3693205123
49602 20 82.1893219185 87.6348402921 6.3910941725
49603 21 80.5241247547 90.348806729 4.8240390637
49604 21 83.2394007501 88.354442684 7.2973086496
49605 22 78.660716559 89.4698123605 5.7807463748
49606 22 79.9228503266 88.2082398323 4.1898105316
49607 22 82.1105613291 86.2471759889 6.7427293358
49608 22 82.7991084768 87.7707537557 5.1249756054
49609 23 80.8612425267 88.4859597727 6.5335928445
49610 24 5.489435088 7.421305131 23.0717357874
49611 20 9.9016089168 4.0823621926 18.7309235425
49612 20 7.5886479984 4.7919735886 17.1985530259
49613 21 11.2173129807 4.6122179775 18.0767055354
49614 21 6.3756975062 3.8329146847 17.6567114187
49615 22 10.3485331685 96.3607091509 19.2491345462
49616 22 9.5057574463 5.0110533705 19.7713677653
49617 22 7.4773635885 5.9406995908 18.0314322275
49618 22 7.3538909305 4.9859753254 15.8288483821
49619 23 8.8025058276 3.9146807108 17.6055450976
49620 24 21.9948110067 25.8360266864 41.0472033623
49621 20 41.4166859371 24.6766932605 67.2942165388
49622 20 40.5039236675 23.0663104736 69.4060666887
49623 21 40.0787848567 24.6800606966 66.4088614577
49624 21 39.0601354289 22.8163718813 69.0480895206
49625 22 42.5060515236 24.7424518048 66.4382329839
49626 22 41.228203054 25.8535186463 68.097069435
49627 22 40.882386072 21.8991196968 70.1294106763
49628 22 40.3403223958 24.2111452162 70.2540993528
49629 23 41.2279224344 23.2433814899 68.0169057472
49630 24 46.3317395812 21.0513676523 75.9240199282
49631 20 52.0730310945 93.0963539873 72.6974548811
49632 20 52.131680607 94.5278885 75.1456744839
49633 21 51.0152819917 93.3199143301 71.5162331204
49634 21 50.7619759631 94.1539160103 75.8220614455
49635 22 51.6849340811 91.8668656421 73.3648620131
49636 22 53.3062610353 93.1289058699 72.0305154486
49637 22 53.1591227847 93.6931385006 75.7187934044
49638 22 52.2864891288 95.9132143058 75.4602491419
49639 23 51.8780939588 94.3683094436 73.6115267093
49640 24 52.0713473764 90.4382308661 74.3851016191
49641 20 75.0051775655 39.9644791082 23.4343899501
49642 20 75.8461947377 37.5146693273 24.5002770235
49643 21 76.4305384453 40.5711788501 23.1220602495
49644 21 77.2075743312 37.5186915427 23.8447494579
49645 22 74.1625702152 41.0631986839 23.7763717965
49646 22 74.6313921557 39.278176918 22.2833815746
49647 22 76.0322455837 36.8210710255 25.756424238
49648 22 75.135104476 36.7679403666 23.5387804699
49649 23 75.2735435167 39.0045727329 24.6360034073
49650 24 73.7739119624 37.6308458737 22.4805636677
49651 20 87.6660826161 3.7095963676 50.4166266806
49652 20 85.7654455433 5.1642530062 49.0026776676
49653 21 87.6390495872 95.7736527864 50.1079450358
49654 21 85.1179624084 6.4251894632 49.638468316
49655 22 87.9721451439 3.7448431344 51.796246553
49656 22 88.716816227 4.2069844558 49.5513826762
49657 22 86.7940101997 5.5705715907 48.1245251582
49658 22 84.6682226059 4.5683758299 48.3111372434
49659 23 86.2310871274 4.2335404312 50.2104647578
49660 24 88.5619141653 96.15295705 53.2235717705
49661 20 43.11742826 47.8398832657 77.9418624862
49662 20 40.5832454962 46.5610058574 77.8014591077
49663 21 43.1840286634 49.1914411704 77.049585453
49664 21 40.0542774049 47.1815495033 76.4104273685
49665 22 43.6680040665 46.847237928 77.146025082
49666 22 43.8881969731 48.1083427568 79.1152268959
49667 22 41.1865778019 45.3207604246 77.4399274238
49668 22 39.3967855015 46.4443616116 78.6721284258
49669 23 41.5878639402 47.5846128995 78.2637332558
49670 24 43.9320671826 47.1952063276 80.976577214
49671 20 52.6570006425 91.4493035626 65.0780694091