ITEM: TIMESTEP
11500000
ITEM: NUMBER OF ATOMS
4000
ITEM: BOX BOUNDS pp pp pp
3.23005382 96.76994618
3.23005382 96.76994618
3.23005382 96.76994618
ITEM: ATOMS id type x y z
49081 20 35.2922550248 41.6352886656 21.7646093316
49082 20 35.2019890286 39.1753765763 23.2312213039
49083 21 36.4474726954 41.3726286478 20.7863691373
49084 21 34.2312320257 39.3371070502 24.4082337694
49085 22 35.49626553 42.9954522404 22.13961076
49086 22 34.1187035352 41.2251162376 20.9989853126
49087 22 34.3360902451 38.6197496157 22.2382018066
49088 22 36.2727401765 38.3612053532 23.6912504945
49089 23 35.6480807753 40.6814623832 22.9310517893
49090 24 27.2527818961 35.1431524363 23.1600374458
49091 20 44.8057297772 57.6362226527 49.7202221819
49092 20 45.3127159938 55.0256177968 50.7112773415
49093 21 43.5010353586 58.2253368948 49.0696522306
49094 21 46.7551946739 55.581618917 51.0674772516
49095 22 45.7607720782 57.6532469131 48.7085882461
49096 22 45.1118858449 58.561425728 50.7433615246
49097 22 44.9129264939 54.4595143682 51.9371176309
49098 22 45.4500325558 54.0453197249 49.7047880997
49099 23 44.4112720511 56.2156323074 50.2421747813
49100 24 44.1613334588 53.429920773 53.4225311215
49101 20 12.5041506339 41.2225906605 72.173537944
49102 20 12.2254952946 40.1331315342 74.817910701
49103 21 13.7739640267 42.0729618219 72.4582733764
49104 21 13.3193601498 40.9122252976 75.6334850225
49105 22 11.7221290718 42.0241339981 71.2963208335
49106 22 12.8931924002 39.9320207656 71.6577589775
49107 22 11.0889949564 39.9210765982 75.611316068
49108 22 12.9351918119 38.961825002 74.4544146793
49109 23 11.8399238583 41.0565573516 73.6967415512
49110 24 5.5484306981 44.5358671878 73.7067503197
49111 20 81.0647853325 83.9949224607 85.755249695
49112 20 80.9101638904 84.3959279792 88.5316072401
49113 21 80.8750864308 85.3418969107 84.9495906021
49114 21 81.1522451319 85.9289532751 88.8801368791
49115 22 80.4550923141 83.0055510192 84.9537998973
49116 22 82.4767700077 83.8703273241 85.8689942041
49117 22 80.0207865939 83.9027856667 89.5798152739
49118 22 82.2450716943 83.7923150538 88.6250535926
49119 23 80.3376062093 84.4059367477 87.0533963212
49120 24 84.3599151207 83.7804354875 85.9145481317
49121 20 43.8808073216 61.8957487311 53.3568661171
49122 20 46.3756097907 62.1922701899 52.078643488
49123 21 43.8817427205 61.4434833515 54.8231974697
49124 21 47.6257704521 61.4537727397 52.6030281246
49125 22 43.450243197 60.7463305338 52.6758957007
49126 22 42.9602812409 63.0321648834 53.2006544969
49127 22 45.8225084072 61.250978253 51.1811282208
49128 22 46.9947503382 63.4238164127 51.6564979538
49129 23 45.4109328808 62.346798092 53.2575267514
49130 24 46.8669748453 53.0282604752 49.3201520623
49131 20 90.0682805918 35.6084198609 33.0054852762
49132 20 89.7706366543 33.5069526392 31.2008201329
49133 21 91.5073918358 36.0097995391 32.7939915796
49134 21 88.278020592 32.9864031382 31.3700337982
49135 22 89.938634301 35.9569494999 34.4079288824
49136 22 89.2707594696 36.4241812622 32.1078764692
49137 22 89.7091809451 34.3475021119 30.0673037173
49138 22 90.5480466997 32.3338688491 31.1012001476
49139 23 90.0934428229 34.073710847 32.5676250401
49140 24 87.8835628659 38.4388434639 27.9782773012
49141 20 52.5462494099 34.6286830284 13.5874454813
49142 20 51.5061793468 33.0116589091 11.5611282091
49143 21 51.5538846919 34.8485953153 14.7606228113
49144 21 50.0853083818 32.517300578 11.8747113442
49145 22 53.1062727455 35.8736989957 13.4261827069
49146 22 53.4917506419 33.6234098052 14.0337243078
49147 22 51.3726979204 33.3257658677 10.1544565998
49148 22 52.3035133892 31.9103202165 11.9151860557
49149 23 51.6686581398 34.3695775265 12.3413538053
49150 24 53.0611865174 33.969413867 9.0813576007
49151 20 67.5778294925 19.1080763885 32.4444330019
49152 20 66.4990339139 16.8692926048 33.6538102702
49153 21 66.5181160519 20.2111923391 32.8296302786
49154 21 65.271042207 17.4365185121 34.4202761482
49155 22 67.1001212622 18.7086610482 31.1323489317
49156 22 68.7911354363 19.7780090976 32.4450877811
49157 22 65.9312467673 16.4478953897 32.3859705691
49158 22 67.0813197438 15.8138819993 34.5014687747
49159 23 67.5405070754 18.0331159455 33.591419162
49160 24 68.8064759786 15.7620608989 34.8266134406
49161 20 32.4016852711 42.6257825858 33.5303376123
49162 20 30.343901179 43.5340549406 35.0267888102
49163 21 31.4471106695 41.368138733 32.9698465772
49164 21 29.1127291158 44.1662910731 34.2678061236
49165 22 33.1208199635 41.9974751288 34.5863094571
49166 22 33.1906007232 42.9585975228 32.3937343802
49167 22 30.0109927021 42.1497580736 35.2453915387
49168 22 30.5130213044 44.3515935998 36.2079170311
49169 23 31.421480739 43.7666886529 33.9135705513
49170 24 87.3306485621 38.9158969149 19.100686737
49171 20 9.6874773952 82.0764192684 44.7090095285
49172 20 9.3211096988 84.3597280409 43.1265016296
49173 21 10.9298742455 82.4961327654 45.5570421927
49174 21 8.238123533 83.8272054337 42.1782877407
49175 22 10.2409997082 81.4388513621 43.5065542122
49176 22 8.8131787293 81.299009223 45.5297285441
49177 22 9.0512284013 85.7034285946 43.4723186116
49178 22 10.5700262796 84.213618729 42.4547916625
49179 23 9.0885695264 83.5276906983 44.4119268304
49180 24 11.846247155 85.3752906522 41.7610998208
49181 20 16.0876732642 33.0110976698 65.1656227483
49182 20 14.0790911556 34.6149326642 64.4088850191
49183 21 15.2491816691 31.72473707 64.8068972611
49184 21 12.6251070687 34.4628367992 64.9906096097
49185 22 16.8170973449 32.6162657841 66.3248626343
49186 22 17.0169920948 33.1703025666 64.0889785872
49187 22 14.1322218144 36.0600304613 64.1703582936
49188 22 14.0902224028 33.8420125336 63.2148482931
49189 23 15.125054232 34.1846491593 65.4637343853
49190 24 13.4733268127 32.7581658008 73.0941575646
49191 20 91.9368334816 89.2301631563 6.782558622
49192 20 92.8662458521 91.9169094845 6.8536021702
49193 21 90.9263220245 88.9223233705 7.9581305732
49194 21 92.7993648291 92.0569387034 8.4074307382
49195 22 93.2452694959 88.764615112 7.232738062
49196 22 91.372507311 88.5159860781 5.6486119229
49197 22 94.2403468709 91.7020483518 6.5463984557
49198 22 92.4182833076 93.127876931 6.3270006382
49199 23 91.8572310332 90.7469125109 6.6136910543
49200 24 92.4852578705 90.9385757504 93.5908058583
49201 20 44.2442098034 77.6235462325 87.4111864095
49202 20 43.3644671157 79.5196933905 89.2376463477
49203 21 43.3383694858 76.3637509622 87.1875325268
49204 21 44.3657181236 80.5847386049 88.9177399158
49205 22 45.5998834634 77.1657619993 87.2656383369
49206 22 43.8958672442 78.3987113205 86.2725252998
49207 22 42.2129910408 79.7738412781 88.4766057834
49208 22 43.1316463237 79.497524436 90.6698356396
49209 23 44.0115760911 78.1491468877 88.8582485443
49210 24 42.7640345467 79.910315981 92.5321213566
49211 20 36.5296942608 81.9271296002 86.3351034877
49212 20 39.3217665078 81.7767174533 86.4564247281
49213 21 36.0459059375 83.4031891016 86.5431362084
49214 21 39.5887293606 83.0815989517 87.2919230467
49215 22 36.4248360415 81.3109823292 87.6297891379
49216 22 35.6683789319 81.3482112064 85.3297367247
49217 22 39.2263558176 80.7901522085 87.4798446904
49218 22 40.4606146973 81.6003947562 85.6209264096
49219 23 37.9898519805 82.0127186017 85.7469246446
49220 24 36.4807728971 79.8990911939 88.742913857
49221 20 73.7974840153 82.1585472939 73.0271830017
49222 20 72.5578933617 81.639681511 70.5218105247
49223 21 74.5525380264 83.3929932534 72.4084166137
49224 21 71.7150053917 82.8896550926 70.0397059195
49225 22 74.7547712737 81.112116518 72.9340172689
49226 22 73.4148123156 82.603329482 74.3195301545
49227 22 73.8857856737 81.7523970812 69.9770341916
49228 22 71.8358589326 80.5488192863 70.0397994594
49229 23 72.6046633079 81.8874686858 72.0862652244
49230 24 74.6384076476 81.1000498719 68.3357832403
49231 20 89.7846676382 88.1878481357 82.7071587626
49232 20 92.4267018979 88.9729284523 82.163691988
49233 21 89.3521391759 89.272162568 83.7631306074
49234 21 92.691700413 88.4433055818 80.7796757406
49235 22 89.2209027069 86.9178570172 83.1349166903
49236 22 89.3177164955 88.6831418658 81.4508244683
49237 22 91.9338402051 90.2724781769 81.8985063931
49238 22 93.7176459524 88.8190553294 82.7461648977
49239 23 91.3185347931 88.0501574142 82.8147296388
49240 24 94.4445444559 74.0313337462 4.160248184
49241 20 12.0164710511 79.2781733884 40.3614624114
49242 20 11.8698753318 79.6719763353 37.6968850377
49243 21 13.5475974872 78.9346949037 40.2490274608
49244 21 13.2960687166 80.1039435582 37.2561250649
49245 22 11.2864763772 78.0476561044 40.2146983203
49246 22 11.7887855991 79.9418389247 41.5626081692
49247 22 11.8015257325 78.2433415593 37.5178496837
49248 22 11.049390166 80.4442416866 36.8282735972
49249 23 11.7657186617 80.209269477 39.178276313
49250 24 10.0944788208 81.9786700809 37.6787382985
49251 20 56.1267694097 75.1231313698 88.713355251
49252 20 53.6401049112 73.7980452546 88.4579913449
49253 21 56.0803736231 76.7084454655 88.5022357139
49254 21 53.3251560936 72.9015589263 89.64407718
49255 22 56.6190698632 74.5443065159 87.5117417937
49256 22 56.9169944203 74.9346484867 89.8996281659
49257 22 52.4044429331 74.4343036025 88.2055271754
49258 22 54.1146327851 72.9732104838 87.3953781676
49259 23 54.644816895 74.8542041793 89.0958398709
49260 24 52.5841330663 72.4209509593 86.4008620321
49261 20 34.7177330059 68.8872944456 54.439777451
49262 20 33.4162189436 67.73637961 52.2016484465
49263 21 36.2151196028 68.8095627951 54.3340773726
49264 21 34.3982007336 66.8592560394 51.462496217
49265 22 34.4293495177 67.7867040721 55.2763047083
49266 22 34.3638715931 70.164394596 54.9539662393
49267 22 32.8595630442 66.890872523 53.1462142795
49268 22 32.4717466504 68.2320474996 51.2412743716
49269 23 34.3633103537 68.8235937789 52.9698915824
49270 24 29.4910044405 62.7731529214 56.4068278474
49271 20 96.6278590835 38.5679285153 75.2338826024
49272 20 3.7701999284 35.8932488332 74.5173670269
49273 21 3.8538114966 38.5783114434 76.5718772227
49274 21 3.4157866303 34.7402761199 75.4023479485
49275 22 95.4528109556 39.2491795514 75.5986881826
49276 22 3.9013400513 39.2621815964 74.320839713
49277 22 3.5168508716 35.4157276827 73.1887263958
49278 22 5.1564611332 36.0985688969 74.8125789272
49279 23 96.2968214044 37.0523951793 74.9890887041
49280 24 4.4636017965 41.1398078558 74.1077558382
49281 20 10.0114060424 54.9774447522 10.8888195868
49282 20 8.3969916862 53.5804264598 9.0715733279
49283 21 9.8926477951 56.5047641147 10.7479859248
49284 21 8.1611308476 54.6551062832 8.0194646806
49285 22 11.107628103 54.5814903879 10.0188611718
49286 22 10.2642911414 54.839473411 12.2810954066
49287 22 9.5619842756 52.8563341531 8.6668636296
49288 22 7.1789526238 52.85904681 9.1799205853
49289 23 8.5966619404 54.3435249017 10.4295012993
49290 24 7.2720809407 52.7594268246 11.1573913257
49291 20 31.9174292483 27.6053337504 44.4115526708
49292 20 33.1288643943 26.543749512 41.998129908
49293 21 30.6302267895 28.4531793348 44.0366447822
49294 21 33.5904837631 25.1289586401 42.5608659005
49295 22 32.5276835061 28.3132436558 45.5175683581
49296 22 31.5325125912 26.2806217948 44.779819227
49297 22 31.9366049262 26.2713613455 41.3278230394
49298 22 34.2220651163 26.9878769209 41.119603239
49299 23 32.908390868 27.6278768645 43.1728038763
49300 24 34.2377798182 28.4732904116 46.2695355528
49301 20 51.5535105323 23.7550447011 66.7007994617
49302 20 54.022589531 24.1954305143 65.3310948179
49303 21 52.5646767687 22.8415341123 67.5163737832
49304 21 54.072165674 22.9849307673 64.4418110612
49305 22 50.6940660013 22.757535289 66.1508784345
49306 22 51.0134111938 24.6477894338 67.6991507329
49307 22 54.4894471338 25.2820834439 64.4940063212
49308 22 54.8106631242 23.7934895968 66.496321257
49309 23 52.500134243 24.4950387895 65.7059091666
49310 24 54.4292074431 27.0653279518 64.1888791923
49311 20 69.7921058244 15.640365499 77.0340578308
49312 20 67.729457658 14.9029905275 78.6936426011
49313 21 70.941336942 15.2399212198 77.9043529893
49314 21 66.9720651496 14.262055185 77.5459081218
49315 22 70.2647629005 16.7113037266 76.275262224
49316 22 69.4983905624 14.4773840173 76.2168933312
49317 22 68.4572915604 13.8442124859 79.2790152475
49318 22 66.6847106002 15.4989331817 79.4478547532
49319 23 68.5889957289 15.9650424653 78.0072468709
49320 24 69.8399982493 18.5095146173 75.7401204998
49321 20 81.2191261549 83.6874568345 81.3151916244
49322 20 80.67594 84.9050656133 78.7728708899
49323 21 82.6868606059 83.8446038537 81.3099533904
49324 21 79.3739582382 84.5358636582 78.006311472
49325 22 81.1530869909 82.4889301937 82.0591143883
49326 22 80.7532039511 84.8431422046 81.9758638841
49327 22 80.4131864423 86.1769275298 79.3675975255
49328 22 81.6273342452 84.9262991689 77.72129542
49329 23 80.9309297465 83.659207787 79.7538237411
49330 24 81.7264865311 85.5976349764 34.19278713
49331 20 80.473426133 40.3390128373 7.4338768925
49332 20 82.9218328155 41.4218306312 6.4687884071
49333 21 80.8534787157 38.7888697411 7.3139868125
49334 21 82.9764601127 42.7366273582 7.3124901742
49335 22 79.1243002655 40.2496822401 7.0439558512
49336 22 80.735899071 40.6699569764 8.7846584161
49337 22 83.5501402725 40.5403106856 7.393448951
49338 22 83.6439607846 41.6859872872 5.2336783143
49339 23 81.3612132514 41.0403749502 6.27849085
49340 24 37.7222343485 40.3934530546 76.8838327637
49341 20 84.8319174175 37.0272329483 28.6603701963
49342 20 85.5039080042 35.4445379695 30.8883968925
49343 21 85.0397630583 35.8675253628 27.6078593275
49344 21 85.3586405514 33.9914892816 30.3826266945
49345 22 86.059441425 37.7505769359 28.6725303823
49346 22 83.704387555 37.7213924895 28.162737969
49347 22 86.8399382868 35.888197679 30.719370307
49348 22 85.0597805953 35.4547338178 32.2320039063
49349 23 84.4649604198 36.1650757604 29.9375638866
49350 24 85.8427094944 40.6057886103 25.2630013058
49351 20 74.012345148 77.8329820515 14.434168587
49352 20 73.2305387277 80.3929818256 13.917080062
49353 21 75.0543795489 78.1661711481 15.6404590389
49354 21 72.3682879999 80.5304854674 12.6642067437
49355 22 74.7253997475 77.6812603461 13.2172145874
49356 22 73.226797132 76.6676620725 14.7507075827
49357 22 72.6264581028 81.2863813375 14.8793249347
49358 22 74.5767648585 80.6353436867 13.5283282694
49359 23 73.0161452944 78.9894157407 14.4148993692
49360 24 66.566756796 78.3115321408 21.4467607773
49361 20 31.0951200546 5.7147352728 96.6060642885
49362 20 28.4283912633 6.6765966319 96.1744712252
49363 21 32.2283558505 6.1242996915 95.6833867903
49364 21 28.287894345 6.2223669146 94.7366695397
49365 22 30.6526763637 4.3643653247 96.2822291812
49366 22 31.6002354733 5.963916192 4.3865062172
49367 22 27.8544304838 5.6052935987 3.4216431629
49368 22 27.7515366022 7.940919233 96.24855482
49369 23 29.9911622449 6.8029596725 96.3205805371
49370 24 31.9716823859 5.7874064152 6.1816770614
49371 20 9.741534099 38.5437952231 70.4853299667
49372 20 7.961825399 38.9781944832 72.4891415408
49373 21 9.4846267846 38.004257124 69.0603432465
49374 21 6.9240844791 39.7829181772 71.6377414406
49375 22 11.0288020357 37.9680571856 70.7765196516
49376 22 9.8138123738 39.9575571562 70.3474521654
49377 22 7.1971929029 38.3241635558 73.4997465379
49378 22 8.8852325084 39.9449292707 73.0312052171
49379 23 8.5720328868 38.054581586 71.3692819495
49380 24 6.7349935867 37.154353662 74.9672003692
49381 20 30.0456024623 54.6450039748 86.731151392
49382 20 32.1871982979 53.5952057628 88.1335014583
49383 21 30.0007968539 55.9325805931 87.5684269685
49384 21 32.6052280768 54.8940071683 88.8646092569
49385 22 29.1627729582 53.6657348417 87.2803241
49386 22 29.7447781685 55.2236417489 85.4787457732
49387 22 31.2639595603 53.0045013426 89.0369097387
49388 22 33.425385853 52.8942178095 87.8655096666
49389 23 31.5240940009 54.1714114998 86.8523790925
49390 24 23.694243771 52.6447469166 85.9484095727
49391 20 32.7639652742 24.5470469697 48.1554868625
49392 20 35.0830998254 25.39844707 46.7937331096
49393 21 32.1736350135 23.2456264473 47.5453261447
49394 21 34.8881626898 24.598026211 45.4632216806
49395 22 32.0921617672 25.6202301547 47.5542124344
49396 22 32.5300220034 24.4461174258 49.6044197952
49397 22 34.5685368776 26.7293326585 46.6544522098
49398 22 36.4998550351 25.3099583318 47.0066299046
49399 23 34.3537692847 24.4683799202 47.8296874174
49400 24 37.2801648172 26.9373653791 47.3461797138
49401 20 8.3812302143 49.6884186185 11.6198244916
49402 20 9.0255984708 50.6773223606 14.2022831938
49403 21 9.7258287511 49.3221164 10.9621548624
49404 21 7.8677803912 50.8554223156 15.2243935976
49405 22 7.9115196448 50.9235193573 11.1595240352
49406 22 7.5569753908 48.6186964095 11.1357181326
49407 22 10.2063525321 50.352832474 14.9948467018
49408 22 9.2672307208 51.9454426813 13.5733209576
49409 23 8.5981398707 49.5554984315 13.147153208
49410 24 11.0800338347 52.8192923557 9.4836259078
49411 20 28.9635329875 35.5720328428 20.7523206164
49412 20 29.8814399512 37.9757274568 21.5765941479
49413 21 28.743246541 35.6903608066 19.1894560949
49414 21 29.662650143 38.9673438557 20.3263399466
49415 22 27.6647315821 35.8305771053 21.2533202799
49416 22 29.3505075222 34.2207555578 20.9550215632
49417 22 28.7995575562 38.2060226718 22.4393125751
49418 22 31.1623752372 38.3401588774 22.1082748961
49419 23 30.1409196126 36.5927401482 21.0043170865
49420 24 31.1620010776 33.6607322222 21.00123027
49421 20 37.2998081946 26.3683622138 43.539760874
49422 20 36.1907056909 28.8025508327 44.0816374705
49423 21 36.4106179778 26.3062517253 42.2630348832
49424 21 37.4575164531 29.5577919236 44.5705704878
49425 22 37.3430236249 25.0463629151 43.9533007382
49426 22 38.5480045182 26.9664562856 43.0789833643
49427 22 36.0946402214 28.9730740565 42.6561830508
49428 22 35.1504485479 29.3118755466 44.9210644645
49429 23 36.4562654453 27.3273331903 44.5072439807
49430 24 35.1885192841 28.70059235 41.0930379096
49431 20 10.4300625387 17.7220022635 52.5895583801
49432 20 8.2064135095 17.234098185 51.0118210156
49433 21 9.876240898 18.0625810116 54.0198768742
49434 21 7.4122504694 18.1998040337 50.1256240754
49435 22 11.615072665 18.5363605664 52.4160418797
49436 22 10.6231101685 16.3496785027 52.6726218045
49437 22 8.7676528637 16.2378047915 50.1623852531
49438 22 7.177923685 16.7462876463 51.9295408996
49439 23 9.2698591918 18.1915725232 51.6774508897
49440 24 16.1610085398 22.3390378105 52.0731246344
49441 20 47.7641159529 26.8760967496 74.6455166794
49442 20 45.8043616681 27.630870141 72.7253297691
49443 21 48.7437592456 28.0705076351 74.8189396399
49444 21 46.0818009888 29.1687595113 72.275215807
49445 22 48.5311430703 25.7306072277 74.6875160911
49446 22 46.8535051008 27.0045270218 75.7127133114
49447 22 45.3010235073 27.0647667125 71.5159525007
49448 22 44.7907633945 27.7071986932 73.7348122874
49449 23 47.2287871489 27.1644802377 73.2333449245
49450 24 46.3905761735 27.0571899812 77.4400209637
49451 20 13.699880432 58.7948077594 63.8468038059
49452 20 15.111116788 60.4809578591 62.0832026754
49453 21 13.7178400913 57.2655240593 63.3750821287
49454 21 14.3022773388 61.7699375759 61.8044537961
49455 22 12.4087212357 58.9366142363 64.4405015027
49456 22 14.8357353449 58.8150123762 64.7454415518
49457 22 15.9332389019 60.8385608676 63.2171867904
49458 22 15.7221193649 60.1270964463 60.8334161735
49459 23 13.9052004957 59.5213321034 62.5035709516
49460 24 19.2420255144 60.9098382656 69.8301765606
49461 20 53.4172928876 69.4616293847 26.4378623539
49462 20 53.3131829874 67.7122463178 24.2247085006
49463 21 53.1723119095 68.2652541614 27.4211537023
49464 21 52.2895759453 66.6118430241 24.2354655882
49465 22 52.5919904173 70.5216234449 26.9716945196
49466 22 54.7997189568 69.8038918509 26.5554419986
49467 22 53.5217769473 68.1464584981 22.8497656228
49468 22 54.4836476605 67.0816939034 24.687543888
49469 23 52.8063838506 68.9216235861 25.1355999724
49470 24 55.7741240155 65.9407878363 24.2068423812
49471 20 29.7171839002 50.2075650211 91.0333316613
49472 20 27.975003405 50.4774276106 88.9397217905
49473 21 31.0497532068 49.4718737677 91.0833755037
49474 21 27.5267602408 49.1058521689 88.2669828847
49475 22 28.8581135288 49.471593148 91.9163482452
49476 22 29.9651581549 51.5425663649 91.4165646003
49477 22 26.9110806693 50.6016485876 89.9031826818
49478 22 27.9294494774 51.4065593614 87.8758925947
49479 23 29.4042929603 50.1755743779 89.559797737
49480 24 25.62434591 51.4577256825 90.8707593284
49481 20 75.7549933427 82.350491153 65.830691383
49482 20 73.0371917702 82.5643233469 66.4364557259
49483 21 75.348001271 82.5476732461 64.3282536319
49484 21 73.1040727932 83.8785588346 67.2256517977
49485 22 76.6999333353 81.3168753424 65.7928077266
49486 22 76.2082876611 83.602709692 66.2939009299
49487 22 72.5911935634 82.9411020334 65.1591684957
49488 22 72.1029153253 81.7145134248 67.1327666846
49489 23 74.4532922006 81.9024350686 66.5620798013
49490 24 34.3119569528 27.6398499707 71.8021845713
49491 20 60.1553454938 65.3448451821 26.7218494671
49492 20 57.6717678118 66.7517787031 26.366491416
49493 21 59.5797945361 64.2517379999 27.6533197152
49494 21 56.7142934736 66.5862130936 27.5208672276
49495 22 61.4512471626 65.5719600407 27.2815921829
49496 22 60.1194261752 64.8301886943 25.4233286813
49497 22 57.4939484764 68.1065169641 25.9630538602
49498 22 57.1463542364 65.8215244735 25.4210837239
49499 23 59.1325803108 66.5479552776 27.0179032264
49500 24 65.1430796342 68.8060082792 23.3045565795
49501 20 37.9783465738 5.8053099505 32.3511737292
49502 20 38.6532368971 8.4152226112 33.1350380272
49503 21 36.884958772 4.944630693 33.1806854946
49504 21 38.8637951948 8.2646608005 34.706321139
49505 22 39.2985686145 5.4285593261 32.8448772811
49506 22 37.7714363319 5.5280577096 30.9750148328
49507 22 39.9934764749 8.2984287016 32.5707118565
49508 22 38.0677707109 9.7063537455 33.0820944481
49509 23 37.655727485 7.294418267 32.7616267769
49510 24 43.5654843444 7.1282914181 29.3806273675
49511 20 33.36720404 48.7343117165 30.575973652
49512 20 35.0584988338 46.4918798769 30.6786804538
49513 21 32.1932783909 48.5980240933 31.6957397034
49514 21 36.0234563633 46.5301376929 29.5394581047
49515 22 32.648537047 49.3298802111 29.5150441928
49516 22 34.3392706014 49.5393160301 31.1884728671
49517 22 35.7188904738 47.0606024225 31.8028428802
49518 22 34.8064088238 45.1181530177 30.8249768454
49519 23 33.8505246638 47.2907105577 30.2355819837
49520 24 40.3441575313 47.7151010493 32.6351608424
49521 20 13.020313114 32.5449883861 58.9279150263
49522 20 15.2024117229 32.3454677957 60.6073302537
49523 21 13.6897781236 33.0270929914 57.579443938
49524 21 14.7188104794 31.5720799657 61.8334511628
49525 22 11.7389943144 33.2473794379 59.0299670488
49526 22 12.8556829034 31.1272977775 58.8624371016
49527 22 15.847182201 31.3334597003 59.7810923845
49528 22 16.1263052398 33.3025679744 61.1546321639
49529 23 13.9501931839 33.0788205518 60.1054887312
49530 24 23.158073108 31.5496303915 62.1423198873
49531 20 12.2606008162 26.7237202649 59.009855972
49532 20 14.3708420799 27.8586397789 60.4574793461
49533 21 11.4180682977 25.8062810006 59.9429163983
49534 21 14.4500703687 27.1618611207 61.843647011
49535 22 12.175591762 26.160516573 57.6800928622
49536 22 11.6900823047 28.0910864114 59.0456817508
49537 22 15.7142620139 28.2520685662 60.178636927
49538 22 13.4873577965 29.0111447927 60.679168891
49539 23 13.728503639 26.7393414269 59.494766774
49540 24 10.0988471338 33.7580137103 59.2124633788
49541 20 87.5814290136 88.1471582825 69.0570693503
49542 20 88.2471524275 90.5536590933 70.3311762241
49543 21 86.155881054 88.0095611009 69.6649851107
49544 21 89.7583829284 90.7551440214 70.236513853
49545 22 88.5056031501 87.3847146199 69.8296153213
49546 22 87.4298943879 87.6093974414 67.7584550246
49547 22 87.8218265369 91.8938051311 70.3459555271
49548 22 87.998991093 89.8335890019 71.5620676677
49549 23 87.8768279936 89.6785934003 69.0428512866
49550 24 88.4607040017 93.5894962998 70.8256280951
49551 20 27.2628842045 54.7193681892 89.685795972
49552 20 24.9676023257 53.4701429268 88.7618089152
49553 21 27.7119692277 56.0687746764 89.0135247656
49554 21 23.9939455862 54.6973863145 88.8261643612
49555 22 28.460756066 53.9493477953 89.9121625115
49556 22 26.5040885976 55.0990466123 90.8749686235
49557 22 24.496348348 52.7534402715 87.6130454972
49558 22 24.8269183276 52.8430514884 89.999528771
49559 23 26.3857606338 54.0807713441 88.5653751413
49560 24 25.1336356347 54.5741942763 81.1175418318
49561 20 32.4488293768 61.9731062221 56.2939251973
49562 20 34.2538686797 60.4641206785 57.7974854271
49563 21 32.7136408121 61.8562748965 54.7440627208
49564 21 33.7842048801 59.6312414769 58.9799232064
49565 22 33.10650836 63.153299044 56.732159593
49566 22 31.0471340898 62.011364038 56.3008471493
49567 22 35.2289285176 59.6366667907 57.1915340044
49568 22 34.6944415727 61.6523579312 58.4297215596
49569 23 33.0067948347 60.5986310437 56.7822034354
49570 24 33.3962014066 65.9565025382 54.9844602442
49571 20 64.928686201 15.1968928693 82.0463929629
49572 20 63.1069967972 15.8873108148 79.9043294279
49573 21 64.3241378766 15.3444052795 83.4788628745
49574 21 62.6148834235 17.2342852648 80.6967058561
49575 22 65.6442663775 16.4365770627 81.9717481288
49576 22 65.6814952547 13.9736716969 82.17061394
49577 22 63.9550294614 16.4181497039 78.8694040588
49578 22 61.910621574 15.3441246599 79.3770450547
49579 23 63.6984495366 15.0343205364 81.0577698406
49580 24 71.6021027416 18.0536947219 87.2087660824
49581 20 88.6058779147 38.7372357205 40.2596910085
49582 20 88.6776230121 36.2226027942 38.9491971166
49583 21 87.5572021814 39.1186914015 39.1463792097
49584 21 88.8916422858 35.1202351627 39.9974986903
49585 22 89.4470821667 39.8608369075 40.3175922019
49586 22 87.8939457939 38.554271691 41.4755225294
49587 22 87.2217681274 36.2945349714 38.6810182452
49588 22 89.4887074188 35.8466659668 37.8861162399
49589 23 89.3373598729 37.465467344 39.6530848066
49590 24 86.4491286165 38.5556747894 42.5635785574
49591 20 79.532321276 61.9745093204 61.5952985968
49592 20 78.4313567429 59.4187188415 61.0970115902
49593 21 78.9071006354 62.5055352894 62.9546203126
49594 21 77.239003735 59.1500722706 62.0904052471
49595 22 79.6894682951 63.1497445281 60.8211624476
49596 22 80.7160686138 61.292697045 61.9681486078
49597 22 77.8818098753 58.8499962959 59.9080260184
49598 22 79.6280125859 58.8225891075 61.5423550177
49599 23 78.5103979519 60.9209695128 60.8951525025
49600 24 81.5191085897 59.5318085714 62.0760936435
49601 20 94.0552314239 92.9383651091 95.0905309525
49602 20 96.0176048257 94.0840417107 96.7287886273
49603 21 93.4246790095 93.8432700278 94.0066842198
49604 21 95.5279234892 95.6224923204 3.3972872458
49605 22 93.1535068615 93.0498646608 96.2090809854
49606 22 94.079458256 91.6702447884 94.4888823649
49607 22 95.525491452 93.2926006815 4.2978771692
49608 22 3.8762180424 94.2459592644 96.6427319264
49609 23 95.4276487246 93.7035214286 95.3675025738
49610 24 13.7619909205 9.1187267877 30.3226676235
49611 20 19.6055215361 8.1841135992 29.4948395761
49612 20 18.0600554345 10.5363238564 28.7795400192
49613 21 21.029011618 8.383297446 29.9122145758
49614 21 17.344475258 10.6173294032 27.4010426255
49615 22 19.7154309096 7.0121148718 28.6660761298
49616 22 18.8552380595 7.9571296964 30.6403290979
49617 22 16.9556299254 10.2313838073 29.6776165257
49618 22 18.6522564931 11.8347978722 29.0029132822
49619 23 19.134641718 9.3647928285 28.5625274689
49620 24 27.5645503573 29.5775288409 42.4936107179
49621 20 41.7089981008 25.0946294996 64.5632258415
49622 20 41.1489747652 22.8877428191 66.4458097151
49623 21 41.218661985 24.777903424 63.1749067591
49624 21 40.8447830352 21.6663924446 65.5833719076
49625 22 43.0988138214 24.8218671734 64.5621969027
49626 22 41.3826374163 26.4257021679 64.7893117613
49627 22 42.5175569303 22.848736684 66.8077155587
49628 22 40.3141312259 22.6893447074 67.5944795933
49629 23 40.7869753818 24.139213039 65.4663535022
49630 24 48.2477171964 23.9296836801 74.0253471931
49631 20 48.5254371368 88.759376878 74.7820849223
49632 20 49.5091026449 90.7874152843 76.5563496005
49633 21 47.0492840955 89.1644981519 74.5361685452
49634 21 48.213294516 91.2567049243 77.1168406356
49635 22 48.4711839992 87.7708472956 75.8175715307
49636 22 49.07011993 88.2652056267 73.5508193191
49637 22 50.0708096985 89.7885963137 77.4070949216
49638 22 50.353674333 91.916535325 76.5061186783
49639 23 49.1293306819 90.1648137608 75.1497902391
49640 24 47.836983529 86.1483043227 76.1916375602
49641 20 64.3609925942 49.7169482857 25.8032877241
49642 20 64.4191744073 52.3058518865 24.6706131675
49643 21 63.0743513748 48.9118504322 25.4092976975
49644 21 63.2137258144 52.3270854421 23.7191253824
49645 22 64.4841846325 49.1910670109 27.1136880762
49646 22 65.3700074131 49.3744987398 24.8881869571
49647 22 64.5405891876 53.617655337 25.2083740087
49648 22 65.3730006897 51.9884710318 23.7190318425
49649 23 63.9667219479 51.2485704832 25.7395870574
49650 24 66.3716325805 50.4835077036 23.7874095038
49651 20 81.3805760091 10.4455433908 58.7703003077
49652 20 79.8931046408 12.6198688348 57.8042202994
49653 21 82.1998919263 10.2314399312 57.5318321328
49654 21 78.6178752883 12.6901172939 58.7355034677
49655 22 80.2983194545 9.5461760338 58.6471082694
49656 22 82.2674277286 10.1188833787 59.8337553439
49657 22 80.1415465949 14.0442007757 57.6830861388
49658 22 79.4152093307 11.933145715 56.627862613
49659 23 80.9994944876 11.9414146415 58.7326972709
49660 24 79.1975420012 6.2319453996 60.04571674
49661 20 41.6704596651 42.7324180631 77.1757707678
49662 20 38.880164676 43.0538211332 77.5340285555
49663 21 41.6944994174 42.7647828658 75.6667852242
49664 21 38.8617373172 43.3491265734 79.0720114657
49665 22 42.6255019661 41.7199422682 77.5690124752
49666 22 41.9745578552 44.0691031249 77.6251364106
49667 22 39.0104657461 44.3752591926 76.9441659943
49668 22 37.71222558 42.2910968509 77.3606991349
49669 23 40.198422379 42.2480685004 77.5104565026
49670 24 42.5678813924 40.5296471379 78.8207633148
49671 20 45.805297067 89.8367693582 67.0584024702