ITEM: TIMESTEP
11750000
ITEM: NUMBER OF ATOMS
4000
ITEM: BOX BOUNDS pp pp pp
3.23005382 96.76994618
3.23005382 96.76994618
3.23005382 96.76994618
ITEM: ATOMS id type x y z
49081 20 32.9836904813 31.4346698638 19.9339400982
49082 20 30.4679350763 29.9957456997 19.9791198662
49083 21 34.0849356341 30.3228547032 19.9222476116
49084 21 30.2586863371 28.7676604529 20.9733553821
49085 22 33.6354764513 32.4874613523 20.7573717706
49086 22 32.823176026 31.7215567137 18.5755537813
49087 22 29.1428489611 30.5506243411 19.9321628402
49088 22 30.9650996042 29.414956508 18.736629476
49089 23 31.6192240715 30.898312121 20.6173425518
49090 24 24.0236912719 30.9481688837 23.9275322626
49091 20 43.5173112999 57.5872077491 51.7985850503
49092 20 44.1864956898 54.9165502823 52.7572754071
49093 21 42.3955809107 57.5301484147 50.6102542577
49094 21 45.1773637696 55.2361760945 53.8533758657
49095 22 44.7886119769 57.5422150609 51.0849692115
49096 22 43.1292142865 58.7476636537 52.5189357613
49097 22 43.4450049631 53.8319552304 53.3013969609
49098 22 45.1157209805 54.5545508989 51.6966265676
49099 23 43.3363116081 56.2240508977 52.6347381481
49100 24 43.4248938862 53.045004116 54.9725806778
49101 20 10.743514718 36.9029184313 80.0479131627
49102 20 9.1696124891 35.7793172443 82.0739872312
49103 21 11.914896082 37.4734182348 80.8708771356
49104 21 10.3438094039 35.7772593666 83.0950686962
49105 22 10.5335083056 37.8924769526 79.0070012405
49106 22 11.0146588039 35.6036493264 79.5924674268
49107 22 8.0263679247 36.1964116243 82.8200614126
49108 22 9.1492862705 34.4735938868 81.5450191399
49109 23 9.5004911504 36.9224682688 81.0381264632
49110 24 4.212044964 42.2898808323 81.8917715209
49111 20 83.2158286972 87.5340042881 83.4842881883
49112 20 82.4691932764 89.443340571 85.4222476782
49113 21 82.9307191053 88.1003883364 82.0762321886
49114 21 82.4551622925 90.7417678168 84.5521395995
49115 22 82.884042699 86.1978804657 83.3736304956
49116 22 84.579453248 87.9022708443 83.7946535511
49117 22 81.4137826709 89.4184589596 86.4247147046
49118 22 83.7910990352 89.3602771466 86.0409205263
49119 23 82.1575183551 88.3173073467 84.3893801868
49120 24 85.9287661953 88.9017445942 84.058997287
49121 20 42.4387028011 62.2004081605 54.8081375471
49122 20 44.6345517742 62.1874061155 53.1070210646
49123 21 42.9887173681 62.8601450213 55.9163981917
49124 21 45.6884657414 63.1178474248 53.6603095279
49125 22 42.5272850791 60.8024544692 54.9933465339
49126 22 41.0503837187 62.5534277143 54.7081434021
49127 22 45.0644611195 60.9060966699 53.6271028661
49128 22 44.8835549677 62.3568068605 51.6969071873
49129 23 43.2671856277 62.7302181108 53.5633086595
49130 24 45.6590006753 53.4630338949 50.3063431475
49131 20 80.025931288 41.2979838137 26.502872579
49132 20 78.2132217139 40.2860692582 24.6401191626
49133 21 81.1949928627 41.829571022 25.7243400549
49134 21 76.9733504407 40.2185334559 25.5938519051
49135 22 80.6180388066 40.864987652 27.7020539991
49136 22 79.1224294677 42.3615323899 26.7415863844
49137 22 78.1092053536 41.6212576817 24.0443635882
49138 22 77.9570159487 39.2904306439 23.6813352659
49139 23 79.4891993856 40.142859683 25.5352959325
49140 24 78.0196876766 46.4480096674 23.7439134539
49141 20 46.1837594715 39.0099045067 11.9678490151
49142 20 46.4223797369 36.6141607836 10.4804150627
49143 21 44.7974982667 39.4527223571 11.3956374315
49144 21 44.9350954484 36.6670108228 10.0861631244
49145 22 46.7461213043 40.2643680032 12.2731538697
49146 22 45.8675010954 38.3006850428 13.1794244709
49147 22 47.1646187828 36.0720971074 9.3734826845
49148 22 46.4807486297 35.8013926589 11.657717502
49149 23 46.8323650851 38.1165049948 10.8342951835
49150 24 48.9938849178 35.6901737269 9.6054148476
49151 20 70.3045173548 21.7958516556 37.9217549389
49152 20 67.7628513996 20.4039780573 37.8328920412
49153 21 70.8649148499 20.838751477 39.0194455757
49154 21 67.2691478477 20.1952905574 39.2859407291
49155 22 70.8102875528 23.0539632078 38.3071392954
49156 22 70.8443360736 21.3165532472 36.6641110861
49157 22 66.6198874548 20.6948871225 37.0838245831
49158 22 68.4426057973 19.1880529965 37.6281332168
49159 23 68.7099428097 21.6094266501 38.0177268685
49160 24 69.3060725437 17.2961151336 37.1507056062
49161 20 28.4254915266 46.0805849702 46.1356799668
49162 20 27.6072980881 48.1010466452 44.3144582626
49163 21 28.3467309372 44.6910498692 45.3050457226
49164 21 26.7964943012 47.2562878773 43.4386442504
49165 22 27.1053630257 46.1170655282 46.7000996773
49166 22 29.4215043005 45.891353768 47.177433748
49167 22 26.7499114348 48.7626543038 45.2427481543
49168 22 28.2440241354 48.9111956529 43.3593224217
49169 23 28.6730916217 47.1946450882 45.068389795
49170 24 79.6193133759 50.8618765682 16.4385414005
49171 20 9.0055341639 75.9462824226 40.566876015
49172 20 6.1656069079 76.3720760126 40.9225146858
49173 21 9.7954879089 76.0555370168 41.889530093
49174 21 5.4570048074 75.9412312684 39.6171654879
49175 22 9.1293155035 77.2591148118 39.9689690231
49176 22 9.6313908757 74.7818043026 39.9886124005
49177 22 5.2507306367 76.0506729424 41.9586560735
49178 22 6.509684048 77.7889247622 40.8072735384
49179 23 7.5654407511 75.5525730156 41.056183192
49180 24 7.9118750964 78.6571620431 40.3507988637
49181 20 12.6010673164 29.0170378059 72.1419214604
49182 20 12.0396408825 31.7686072796 71.3685336304
49183 21 11.3697081734 28.2955646161 72.5247802398
49184 21 10.5440408975 32.0855204349 71.6419507357
49185 22 13.5523680217 28.5051875149 73.0734852484
49186 22 12.9259313626 28.6608378958 70.8236637574
49187 22 12.6575654114 33.0232578558 71.6180980632
49188 22 12.0588352684 31.4081045344 69.9804951676
49189 23 12.2480664706 30.5961782687 72.3645464042
49190 24 8.6583514994 28.8510980369 78.4902868751
49191 20 4.7153924788 93.0658599824 94.8215102221
49192 20 4.318006954 95.9207910371 94.9118697581
49193 21 6.2145002097 92.5580319068 94.8312383709
49194 21 5.5729755659 96.5243104226 94.1586865448
49195 22 4.3359479054 93.0485551023 93.4412355704
49196 22 4.0262747378 92.1400956677 95.73576913
49197 22 3.3704787126 95.7078007022 93.900422902
49198 22 3.9769165428 3.3107735089 95.9664385046
49199 23 4.8970750117 94.5762486243 95.3691862919
49200 24 93.0039365737 94.8912909818 89.8254510313
49201 20 44.3301729645 74.6703982908 88.2082398323
49202 20 41.490675992 75.0355780306 88.8456206588
49203 21 44.2993048 73.4248210841 87.2601194833
49204 21 41.1786269111 76.1411260184 89.8679181424
49205 22 45.4953994036 74.3205590934 88.934109397
49206 22 44.3867645994 75.8799626389 87.4038902979
49207 22 41.1741369962 75.6454581287 87.5661820111
49208 22 40.6202872936 74.0203895788 89.2096779199
49209 23 42.9973230382 74.5472997924 89.089666238
49210 24 41.5049875955 72.0061015367 89.9226389794
49211 20 36.3590774971 73.3947947787 85.0146008273
49212 20 37.8735818943 75.2658732455 86.4764422651
49213 21 35.1026496629 74.1445170159 84.6815988105
49214 21 36.5976977625 75.9143853193 87.0046620373
49215 22 35.9460053325 72.7702289174 86.2880529219
49216 22 36.5532663137 72.6121464993 83.7952147905
49217 22 38.3282793111 74.3613424864 87.4765707942
49218 22 38.7474315688 76.3941514272 86.3092864775
49219 23 37.3268412235 74.6091296613 85.1366703868
49220 24 35.6163707518 70.7677269017 86.5905609338
49221 20 71.2497379671 68.8890717036 71.5465400455
49222 20 69.8788173046 71.3082939397 70.9708020081
49223 21 71.2056806778 67.6569642414 70.6129183799
49224 21 68.8073178377 71.6116438106 71.9595186703
49225 22 71.2227049382 68.3629098091 72.867884565
49226 22 72.4795069319 69.4989518018 71.1563851545
49227 22 70.9590159816 72.0898197404 71.3629212368
49228 22 69.2864291663 71.7182792879 69.7639503168
49229 23 69.9847980027 69.6872476051 71.1023190967
49230 24 71.3852772711 74.0011203609 71.8739296688
49231 20 92.6892683758 91.7126183596 84.2548698216
49232 20 93.2007445072 89.4612066904 82.503428877
49233 21 93.4603177085 92.9823288585 83.6466734414
49234 21 92.321469519 88.133688538 82.8205291121
49235 22 93.504187918 91.1612006942 85.3202891955
49236 22 91.4160969008 92.1897653506 84.6851533264
49237 22 93.202615305 89.4903911368 81.0540282449
49238 22 94.5014167105 89.2861935518 83.163914057
49239 23 92.4435390785 90.7011715035 83.1000263105
49240 24 85.5156004908 65.1982681707 92.6371666557
49241 20 12.4229580074 73.2334384643 37.5485307684
49242 20 12.1225452891 75.5411611488 35.7921322095
49243 21 13.5204709184 73.3770221991 38.6502436206
49244 21 13.4401201509 76.4529880195 35.9573236594
49245 22 13.0540810151 72.4028042202 36.5436317048
49246 22 11.4067032008 72.5603253989 38.2934824711
49247 22 12.3159296625 74.7835815605 34.584719279
49248 22 11.0874421942 76.5087377953 35.7410594283
49249 23 11.9979501524 74.7208162928 37.1294720506
49250 24 9.2365496361 76.269182131 35.6574347645
49251 20 57.0112826318 76.1956597756 87.1153197299
49252 20 54.7458399788 74.882266147 88.0917826663
49253 21 57.5198590266 77.6361741179 87.3722738142
49254 21 54.8414377487 74.2265515015 89.4988097271
49255 22 56.4602391259 76.0451540888 85.78565016
49256 22 58.1389060342 75.3474400317 87.3577751309
49257 22 53.5165387134 75.5882117146 88.0492220152
49258 22 54.984647324 73.805528446 87.1263574372
49259 23 55.9097568594 75.9046571705 88.1577282904
49260 24 53.8647877326 73.0073525445 85.9103388365
49261 20 30.6675492066 66.836993545 63.255818766
49262 20 31.9353889076 66.1464820596 60.7662545308
49263 21 31.6484085179 66.7679611044 64.3894287215
49264 21 33.3396097717 65.6321061915 61.141536579
49265 22 29.9894785269 65.5798173917 63.1535796636
49266 22 29.7297182458 67.7883877902 63.7014428132
49267 22 31.0872627036 64.9404722274 60.6153746845
49268 22 32.1408025113 66.8047222821 59.5221739624
49269 23 31.5224102829 67.0694401775 61.9450442543
49270 24 28.1986572876 62.0068741232 55.6813324422
49271 20 93.0244218101 36.5530792339 82.1179509806
49272 20 93.7043632877 34.6351372809 80.0812133643
49273 21 93.1796980314 35.7983058424 83.4549166621
49274 21 93.6181195069 33.1413051999 80.6091525168
49275 22 91.8840769823 37.4239356318 82.235811245
49276 22 94.279353006 37.2318982327 81.9222655258
49277 22 93.226935677 34.5815389226 78.7412544063
49278 22 94.9577978453 35.0978791284 80.3541627703
49279 23 92.6297770042 35.4331261027 81.0187637055
49280 24 95.5340035822 38.6054380122 81.8168460671
49281 20 7.9949198129 52.0423500098 17.591233494
49282 20 7.7248140197 51.6078572098 14.7732506968
49283 21 9.5116130436 51.6295584648 17.8518356341
49284 21 9.2150448148 51.1228528679 14.4380037226
49285 22 7.190139995 50.9069627963 17.85539015
49286 22 7.7607052764 53.1403212663 18.4673281259
49287 22 6.9081078655 50.4583454725 15.033759297
49288 22 7.3279336104 52.3146446364 13.5745369762
49289 23 7.9154389663 52.513978147 16.0655978496
49290 24 5.9504745095 53.5902481485 13.6141978906
49291 20 30.8434977441 24.3533258526 45.5338442994
49292 20 31.9547516654 24.5712738018 43.0031225116
49293 21 30.724515001 25.8638080344 46.1144464112
49294 21 31.8069586354 23.1119579411 42.4996908109
49295 22 30.9972773272 23.4719929868 46.6697927522
49296 22 29.5834218541 24.1953369744 44.8309855482
49297 22 30.7893381464 25.2695490983 42.5819123763
49298 22 33.1302674926 25.0528171677 42.2904420717
49299 23 32.1272392269 24.3629604615 44.556539504
49300 24 32.557242112 23.3360795232 47.9313652804
49301 20 63.2926734836 27.5655792962 67.872854313
49302 20 62.2021854184 29.1642695965 65.7687679742
49303 21 64.7671428068 28.0835096801 68.1776072823
49304 21 60.6881487207 28.8559621113 65.6608229385
49305 22 63.4531879389 26.4678886593 67.0128485426
49306 22 62.724886337 27.3155471639 69.1334914423
49307 22 62.3653189907 30.4796275628 65.2851667307
49308 22 62.8170231309 28.3602006817 64.8150352317
49309 23 62.6818579865 28.8068536678 67.2482884517
49310 24 62.0233371443 32.2254561138 65.2820799143
49311 20 70.3484811042 14.9988689172 79.2518886787
49312 20 69.1026232778 13.2814764934 80.9917306766
49313 21 71.7599980799 15.2239258982 79.9623241612
49314 21 67.8412378294 12.7084511128 80.2454694153
49315 22 70.0694516053 16.2991669609 78.6508013304
49316 22 70.6122636006 13.958798854 78.3022716914
49317 22 70.0965781741 12.2478793908 80.804557352
49318 22 68.7468910672 13.4156126991 82.3656446156
49319 23 69.2778234962 14.6240545685 80.3063638853
49320 24 69.5774317715 18.1414351409 78.2273462377
49321 20 84.4602834252 83.6525664546 80.3919528868
49322 20 87.1541387853 82.7480356955 80.6320697905
49323 21 84.2653462895 84.7531568282 79.3290590899
49324 21 87.0974536105 81.8000088865 81.8667028297
49325 22 83.6683746965 84.1100700682 81.4741159015
49326 22 84.1031481161 82.433928737 79.688719976
49327 22 86.9288011846 81.8454692741 79.548784297
49328 22 88.4657551559 83.4679187071 80.6422656387
49329 23 85.9335367298 83.742645371 80.826258607
49330 24 81.7792430304 80.3722159695 31.3126938442
49331 20 74.7968642253 34.1742662313 95.8958158859
49332 20 73.0302698181 31.93333103 96.4856784471
49333 21 73.9400388112 35.0172477412 94.7945707331
49334 21 71.698168211 32.7897822845 96.2582829688
49335 22 76.176203478 34.3453506944 95.5847022039
49336 22 74.4047449965 34.6814395277 3.6336747139
49337 22 72.7964200872 30.6003875639 96.0324776686
49338 22 73.0901353493 32.0024570105 4.3623168011
49339 23 74.2996996974 32.6390895179 95.7530740101
49340 24 47.9641977827 44.2178315537 67.3617523411
49341 20 74.9042480217 46.2077056839 24.8034398147
49342 20 75.0406291847 43.8150487772 26.0507942793
49343 21 74.1938125392 45.7911725432 23.4139982535
49344 21 74.1994249328 42.7051979544 25.235032878
49345 22 76.2940637424 46.1525171474 24.4726827553
49346 22 74.3637745236 47.4762937041 25.1330743953
49347 22 76.4576650141 43.6362940429 25.7205049194
49348 22 74.7762854489 43.5266652891 27.428449814
49349 23 74.3542334546 45.1536046369 25.7189147412
49350 24 79.2734028539 50.0477053451 22.8229196737
49351 20 69.0964496449 91.5815689704 13.0952385677
49352 20 67.1751402559 93.5344013032 12.6680418793
49353 21 70.3469844659 92.3849831059 13.776302524
49354 21 66.1480722378 92.6937582906 11.8566020211
49355 22 69.4933394082 91.5709054227 11.7278256513
49356 22 69.0370518133 90.2996047456 13.719804429
49357 22 66.3940821547 94.4494085303 13.4699593765
49358 22 68.0317785901 94.1393237871 11.7247014189
49359 23 67.8883819351 92.4423230599 13.5891291994
49360 24 61.0692302422 89.519762663 19.8080354031
49361 20 33.6022697895 5.3436625198 93.9571080768
49362 20 30.9880168778 6.1063774481 94.4443573761
49363 21 34.1242223889 5.7372877408 92.536985431
49364 21 30.4692446348 6.0281874521 92.9635273402
49365 22 33.0698407222 4.055053221 93.7626386406
49366 22 34.7462626731 5.2769872845 94.8122497728
49367 22 30.6740034592 4.8196520428 94.9693967919
49368 22 30.1812353062 7.21355303 94.9333839334
49369 23 32.4861517939 6.4118600286 94.3146175454
49370 24 35.5281626333 4.0658664326 96.1434159809
49371 20 7.749733047 36.041977262 77.2258146102
49372 20 5.8032707809 36.2753592935 79.234209639
49373 21 7.1945831399 35.5232985589 75.7991441719
49374 21 5.1819039839 37.3223513086 78.3010556728
49375 22 9.0182368813 35.3477241809 77.2260952298
49376 22 7.8927929584 37.4003635789 77.0581911231
49377 22 4.7398344526 35.3722316327 79.6251128492
49378 22 6.5350240048 37.0169435601 80.2376120644
49379 23 6.742617088 35.5469641517 78.2916081437
49380 24 3.3538912835 34.8868531313 80.5552735388
49381 20 26.4693852976 55.5583274838 88.8728407675
49382 20 26.2140213914 56.3266641596 91.631519273
49383 21 26.747105238 56.9460853268 88.2097364705
49384 21 26.1451760307 57.9242319813 91.405526893
49385 22 25.0364476865 55.3792921298 88.8190553294
49386 22 27.1696249318 54.634433967 88.0788741611
49387 22 24.8655503032 55.9374446675 91.7185113728
49388 22 27.036517665 56.141268093 92.7738284385
49389 23 26.9752490355 55.7814201271 90.3634924921
49390 24 22.9375060419 50.7928441276 87.2122270584
49391 20 32.3885896861 19.4199383897 46.8627655501
49392 20 34.2555523977 21.3446152149 46.1822628332
49393 21 32.1918752925 18.31598058 45.8050164473
49394 21 33.8263913716 21.5354365953 44.6830054385
49395 22 31.2973533019 20.2986521385 46.5764399396
49396 22 32.3707235667 18.6860243942 48.1242445385
49397 22 33.527999115 22.3189267337 46.8652911272
49398 22 35.7090687851 21.4633173383 46.2251041039
49399 23 33.8153536643 19.9356238162 46.5136746718
49400 24 36.3773177761 22.143071736 47.7584100195
49401 20 3.3146093928 52.0420693901 15.0281469035
49402 20 3.4050519922 52.8342587385 17.7576409625
49403 21 4.0987812499 50.7173574345 15.1900644571
49404 21 96.5387155661 54.3285585189 17.7762554011
49405 22 4.2871949135 53.0399529618 14.6963609053
49406 22 95.7945121824 51.8988598149 14.0749754003
49407 22 96.5150499733 52.3053841871 19.0090176425
49408 22 4.8260221095 52.9097454316 17.6609207138
49409 23 96.1854153926 52.272458145 16.4212365204
49410 24 6.0348942624 49.9174978149 16.6257147251
49411 20 23.3865910651 32.766677931 21.3136535105
49412 20 26.182217828 32.8247662042 21.4333845727
49413 21 23.2089588095 34.1135588411 20.6948871225
49414 21 26.5393531371 34.363965133 21.1470589622
49415 22 22.2331506524 32.6687416637 22.1621538741
49416 22 23.3517006852 31.7477478836 20.2925720455
49417 22 27.0925480605 32.3915829627 22.4217270754
49418 22 26.3688299133 32.265304108 20.1124142128
49419 23 24.7844512165 32.8539506506 22.1142614492
49420 24 23.8184647481 30.4227553083 18.9897484247
49421 20 36.0657363947 24.9969738519 46.9724878439
49422 20 33.9202118836 26.2774414385 48.0679335233
49423 21 35.6276890788 24.4131913837 45.6012865618
49424 21 34.4755582246 26.5922031763 49.5137796395
49425 22 35.8698638601 23.8933902019 47.8599943426
49426 22 37.3991475603 25.3846031659 46.8068286945
49427 22 33.0537518607 27.4074033382 47.6772173929
49428 22 33.2731964482 25.0637613351 48.1506227881
49429 23 35.1972184941 26.2901628638 47.2066181944
49430 24 31.3550674154 28.5122030068 47.6236190346
49431 20 13.0251771884 17.6675620462 52.5197776204
49432 20 11.6963962474 18.4057788767 54.8113179034
49433 21 14.5130227162 18.0174012436 52.3621629017
49434 21 12.7658846067 17.8218093287 55.7094879498
49435 22 12.4752468072 17.9000086787 51.2048873535
49436 22 13.0603481879 16.3510816011 52.9889737205
49437 22 11.4018017104 19.5391082125 55.5840509542
49438 22 10.6447459456 17.4666383574 54.6354629058
49439 23 12.5059840158 18.746170545 53.5190642905
49440 24 15.3867788508 23.3644221106 57.0496339877
49441 20 56.0710196338 25.8953309782 74.5124094126
49442 20 54.9878276803 28.2892039034 73.3722516646
49443 21 57.5173334495 25.3735654586 74.6399978258
49444 21 55.5058516042 29.7735884553 73.7741925821
49445 22 55.4524403256 24.9301863688 73.6205065389
49446 22 55.4988361123 25.8653982126 75.8422660623
49447 22 54.8195494139 28.3482275755 71.9279021867
49448 22 53.7379476386 28.1932319739 74.0600504931
49449 23 56.200385305 27.4030069632 73.9769870687
49450 24 54.9348841012 25.0903266645 77.5013831331
49451 20 7.4031583918 51.5639870002 63.19146332
49452 20 5.0299110128 50.8610347092 61.7546905734
49453 21 7.6033524695 52.856427693 62.2816007871
49454 21 5.3546815191 49.3527974847 61.458730354
49455 22 8.2391524718 50.580508572 62.6133867853
49456 22 7.8509806265 52.02476451 64.428060697
49457 22 3.639337619 50.8145453827 61.9204432627
49458 22 5.4044166799 51.4990703149 60.5738429722
49459 23 5.8731824964 51.197497702 63.0460087874
49460 24 11.4187604929 53.0255478184 70.6791446237
49461 20 49.8729728262 76.8486617642 20.4492513652
49462 20 50.1980239521 74.1906321829 19.340523021
49463 21 48.6839872544 76.7337947764 21.6063398337
49464 21 49.0179246701 73.253736621 19.8377810888
49465 22 49.5647588808 78.1666388475 19.9652759621
49466 22 51.096661698 76.7348237152 21.0967345001
49467 22 50.4894942567 73.6326667249 18.0537882617
49468 22 51.2723296159 73.9559405929 20.2532852907
49469 23 49.6221923747 75.6697785008 19.423960605
49470 24 52.5376437398 74.3129823621 21.5143901195
49471 20 23.491823444 52.3223149076 91.9067136363
49472 20 21.4952144416 51.3861676649 90.2285144274
49473 21 24.4913907337 51.1554982903 91.6277776773
49474 21 21.1239546088 49.9766150269 90.4690054907
49475 22 23.7692627647 52.5654250878 93.2849304103
49476 22 23.9370733316 53.3400289365 91.0241647519
49477 22 20.2586170646 51.9983862604 89.9424694366
49478 22 22.4104087484 51.3222799184 89.1566408009
49479 23 22.1372722627 51.6825020439 91.6397507835
49480 24 19.1266908271 53.2833437617 88.5050419107
49481 20 70.2307143797 77.1902694511 67.9262655915
49482 20 69.2787588952 75.334999226 69.8573031294
49483 21 68.7248156526 77.5455339623 67.5558476178
49484 21 67.9156020438 76.1061420986 70.3531580988
49485 22 70.6183436936 76.3368114732 66.8737547227
49486 22 70.8347950046 78.4858905001 67.8626584647
49487 22 68.8312640501 74.4281299696 68.8658738103
49488 22 69.7469260564 74.6016464699 71.0006412337
49489 23 70.1543858275 76.5235170983 69.3417112427
49490 24 43.8453557024 28.3783474209 70.0076217364
49491 20 56.156889255 76.4867559206 24.4639835453
49492 20 53.4878219664 76.3107138432 23.7009786433
49493 21 56.7332820717 75.5536019544 25.5368861106
49494 21 52.8382809539 76.9520233452 24.9523553233
49495 22 55.9156498726 77.7039905399 25.2331620802
49496 22 57.1570177841 76.5769283769 23.4685320108
49497 22 53.5831391167 77.398021552 22.7805461025
49498 22 52.5455946307 75.3125496518 23.2182192588
49499 23 54.8932588491 75.6985887876 24.1049774384
49500 24 60.7934746395 79.6641189843 22.2903035266
49501 20 38.9581769462 5.9018150575 37.7929505071
49502 20 40.3548210791 8.129542426 38.9456426007
49503 21 38.3631696909 5.1747481822 39.0399308122
49504 21 40.3924241158 7.4663445891 40.3799833101
49505 22 40.1769082038 5.2341273058 37.505408878
49506 22 38.0278291768 5.8094069978 36.7369786623
49507 22 41.5181767203 7.7755687653 38.250173501
49508 22 40.0589543995 9.4891541154 39.1089632527
49509 23 39.1238360956 7.3796424629 38.3513836645
49510 24 44.4103366522 8.0289215638 33.889437259
49511 20 31.7628078062 42.97842798 39.5395273773
49512 20 33.9476190721 42.990588166 41.4128508016
49513 21 30.6851347064 43.9715410172 40.1535232307
49514 21 34.8882562297 41.7320089143 41.417714876
49515 22 30.9790370482 42.0227308997 38.8460226153
49516 22 32.5391889128 43.7759491022 38.6671743411
49517 22 34.6945351126 43.8864197151 40.5774460229
49518 22 33.8290104886 43.2993633507 42.721193276
49519 23 32.6244972947 42.4173757056 40.7312256059
49520 24 38.4945932397 48.6652792759 40.0767269791
49521 20 11.1410779685 31.25554097 64.9254123047
49522 20 11.0179981781 29.0856960869 66.5409397857
49523 21 12.4338554048 31.4379437601 64.1827055594
49524 21 9.5279825247 28.9536177589 66.3102704111
49525 22 10.740044388 32.6017671008 65.1627230116
49526 22 10.2934475259 30.5932785321 64.032667572
49527 22 11.6497666111 28.2299931516 65.5636349903
49528 22 11.1835731416 28.7412822032 67.9184082406
49529 23 11.5084465417 30.5854211811 66.2296390239
49530 24 19.0709410513 27.4437903563 67.567820724
49531 20 8.5193231574 29.1453745382 60.9214372123
49532 20 9.5116036896 27.2808438638 62.8142169342
49533 21 7.0795477802 28.6874032252 60.3518728077
49534 21 8.8086888144 25.8912152229 62.9115919621
49535 22 9.1099620998 29.7581543731 59.8265527722
49536 22 7.9675032704 29.9546816869 61.9476633713
49537 22 10.9099408944 27.0679470688 63.0583560532
49538 22 8.885559898 28.0730332122 63.8460554868
49539 23 9.1929881082 27.7955003516 61.3452664645
49540 24 9.5752575863 33.998972473 65.3432550039
49541 20 92.2935946311 81.3049957761 71.8754263071
49542 20 93.0638956447 84.0316836384 71.3334561707
49543 21 91.066631863 81.6162965379 72.8164376242
49544 21 94.6328402592 83.7522799799 71.3409393621
49545 22 93.3647199385 81.0410261999 72.8025001802
49546 22 91.910455232 80.202347525 71.0792147433
49547 22 92.9166638541 85.0023471014 70.2924507087
49548 22 92.7743896778 84.5239840919 72.6899716897
49549 23 92.4070585205 82.6231599392 70.9964319386
49550 24 92.1509462952 87.0670531455 70.8800683125
49551 20 21.5314143799 55.3335511225 89.0606688713
49552 20 21.6218674558 53.527295801 86.9662171415
49553 21 21.6818265268 56.6976433727 88.3510752479
49554 21 21.5873512355 54.5456646091 85.7957524684
49555 22 22.1567285603 55.5175440907 90.3590961172
49556 22 20.0956705721 55.1909963265 89.1819901117
49557 22 22.5104028933 52.5350246228 86.5294793841
49558 22 20.2168047327 53.1076758439 87.0106485904
49559 23 22.2474622559 54.1966672707 88.2307829463
49560 24 26.1723961393 48.5980240933 83.9757467828
49561 20 31.3328049211 61.3085052868 56.1155446226
49562 20 32.308706618 58.6733929792 56.435825214
49563 21 32.366981971 62.2472716466 55.6051909699
49564 21 31.7263272482 57.3954509697 55.5805899782
49565 22 31.3544126362 61.3691191371 57.549885332
49566 22 30.1931148725 61.7892067937 55.4426186369
49567 22 33.7466018434 58.4863131944 56.4063601479
49568 22 31.7019133363 58.5786370682 57.7540829171
49569 23 31.8265084729 59.9029748642 55.6273599244
49570 24 31.2629306215 63.5159532066 59.1652257332
49571 20 67.0552221139 13.3593016839 85.159119961
49572 20 65.3768358253 14.7701638803 83.2900058319
49573 21 66.5474875781 13.3914794068 86.5998213831
49574 21 65.6029217451 16.1206928462 83.9371148072
49575 22 68.0751811002 14.3714968591 84.9840132825
49576 22 67.5273179506 11.9839378766 85.0887779619
49577 22 66.1639740195 14.7986935475 82.1090646908
49578 22 63.939688919 14.7593132528 83.0192078435
49579 23 65.7962687026 13.634683127 84.3190381877
49580 24 75.4324677938 15.3000673706 87.7980674043
49581 20 80.1663346664 44.284525497 32.5094432271
49582 20 82.0318942796 42.6976212231 31.059949055
49583 21 78.9207574597 43.4904653508 32.9218606125
49584 21 83.0729932816 43.5522952196 30.2080812553
49585 22 79.6654285428 45.5853847801 32.061948382
49586 22 81.0563667422 44.3269926081 33.6309865364
49587 22 82.7426103818 42.3713540786 32.2313491271
49588 22 81.6943088081 41.619293344 30.1819836254
49589 23 80.7212133079 43.5709096582 31.2418841457
49590 24 82.7022011483 43.131365704 34.0758622645
49591 20 80.1262995925 66.0423721594 55.4567431607
49592 20 77.4082174003 65.5524102032 55.1556382472
49593 21 79.9897313496 66.6411210104 56.9219520346
49594 21 76.3694568956 66.5739593677 55.7608413508
49595 22 81.2014471152 66.7107146903 54.7974739993
49596 22 80.3557529484 64.6866049595 55.7249220321
49597 22 76.7379105316 65.1237168765 53.9981756191
49598 22 77.524019787 64.5533106129 56.1619404092
49599 23 78.6873754283 66.3545147802 54.887272296
49600 24 79.0539582664 63.4230680935 56.1437936701
49601 20 95.7003175108 96.266795099 90.3117649316
49602 20 4.1390903957 4.807258007 89.9249774767
49603 21 94.8735184023 96.6086834055 91.5719343615
49604 21 4.1188193657 5.5844154947 91.2526827089
49605 22 96.6374001525 95.4031412728 90.8495257728
49606 22 94.7353599812 95.8382888521 89.4138755049
49607 22 5.188769812 3.9004710657 90.071648028
49608 22 4.2087523598 5.7778653461 88.9025864532
49609 23 96.249396679 4.1203281641 89.7034750116
49610 24 6.5206469234 5.2566236499 24.1855152857
49611 20 9.1034984932 94.3925362757 32.9285954847
49612 20 8.717805455 3.5654102359 32.1702675774
49613 21 9.4443765689 93.8341031184 31.5672158913
49614 21 7.6306006401 4.1458888751 33.1341026282
49615 22 7.7316985558 94.0518639878 33.0600190335
49616 22 9.8969599841 93.6511390889 33.834716422
49617 22 9.5453715907 4.6913807884 31.9627025562
49618 22 7.9588508304 96.729069247 31.0401185979
49619 23 9.4323099228 95.963445228 32.9270053065
49620 24 24.6231884421 26.4597506887 46.7466825437
49621 20 52.4639343046 28.9429542112 64.0677450317
49622 20 52.6248229195 26.6218553221 65.5589579957
49623 21 51.6482664433 28.9938399126 62.7098264143
49624 21 52.9720429999 25.647824423 64.4248803407
49625 22 53.8727386235 28.7322088337 63.6014486683
49626 22 52.1859337445 30.2348336645 64.5910071895
49627 22 53.8880791658 27.103398688 66.1300190385
49628 22 51.7774450346 25.7910339982 66.3702294821
49629 23 51.8083131991 27.7462983682 64.8708785475
49630 24 54.6000112866 23.3659187489 73.2079020737
49631 20 48.4925110947 86.3044224031 74.6561802271
49632 20 50.4406664329 87.2935132249 76.4282934879
49633 21 47.3905176228 87.1354308068 73.9235757902
49634 21 49.6139608642 88.0249951831 77.60829923
49635 22 47.8781410817 85.6741506083 75.7946542571
49636 22 48.9938849178 85.410274572 73.6860780035
49637 22 50.6672200522 85.9512157695 76.8843940031
49638 22 51.6871790385 88.0013295904 76.3296089015
49639 23 49.5559661309 87.3731156733 75.1292114628
49640 24 47.8175272314 83.6523793749 75.8793078596
49641 20 58.7127732738 53.4867930276 31.7846026012
49642 20 57.6161115758 54.6531419454 29.4793119539
49643 21 58.8885347316 51.9301021389 31.6829247382
49644 21 57.2224021689 53.5610637021 28.3713319289
49645 22 58.2013906823 53.6938903493 33.0788205518
49646 22 59.970136507 54.0195027146 31.5858303299
49647 22 56.7563864251 55.689376873 29.3154300625
49648 22 58.9583154913 55.0825835913 29.1392009053
49649 23 57.5092890187 53.8918207615 30.8072978058
49650 24 60.2889204601 55.2213032516 30.2803875921
49651 20 85.3872637585 3.9727334388 54.1071495937
49652 20 87.2144720158 3.6767227078 51.987442093
49653 21 84.3024816268 96.5572364647 53.6467462435
49654 21 87.8881463206 5.0674392176 51.9262670033
49655 22 84.8677431963 5.2776420638 53.6981931843
49656 22 85.5396402431 3.9293206393 55.5098738196
49657 22 88.3072985783 96.3792300496 51.6059864119
49658 22 86.0634636403 3.7822834117 51.1279040221
49659 23 86.7443405168 3.5292898065 53.4765971793
49660 24 82.697243534 7.9071419779 55.3135335855
49661 20 48.4246011329 47.1204679536 66.6933162703
49662 20 49.6947793312 45.7488925119 64.6934333717
49663 21 49.434270731 48.2257353217 67.0326789998
49664 21 49.5434317854 45.6588135956 63.1241145975
49665 22 48.8277580689 46.0769369144 67.5710010803
49666 22 47.1965158861 47.8444667204 66.9233308656
49667 22 51.1313649981 45.9085651082 64.8959472386
49668 22 49.1008945546 44.526139039 65.048604343
49669 23 48.7158843577 46.8910145976 65.1638454903
49670 24 45.5461915652 47.7716926842 66.1618226019