ITEM: TIMESTEP
12000000
ITEM: NUMBER OF ATOMS
4000
ITEM: BOX BOUNDS pp pp pp
3.23005382 96.76994618
3.23005382 96.76994618
3.23005382 96.76994618
ITEM: ATOMS id type x y z
49081 20 28.103620757 42.0285303731 15.1775301116
49082 20 27.6624866246 39.5905066186 13.8353261961
49083 21 29.3391891952 42.9605618605 15.0688367566
49084 21 27.6684731777 38.4484780728 14.8536950042
49085 22 27.9429192219 41.8153529584 16.6212248102
49086 22 27.0696307869 42.7224092946 14.4191086643
49087 22 26.309993321 39.9355752815 13.6696670467
49088 22 28.3096891399 39.0099980466 12.7496086655
49089 23 28.5327817832 40.6861393778 14.5249022826
49090 24 21.6890290985 35.0863737217 16.4218912996
49091 20 43.2957152949 57.2655240593 58.1867049192
49092 20 42.9338094513 54.530978846 58.7974268764
49093 21 42.547396156 57.3978830069 56.8222385094
49094 21 43.9898748361 54.2133173716 59.8739774976
49095 22 44.6533532926 56.8665764183 57.9474298746
49096 22 43.1134060447 58.5118495851 58.850838155
49097 22 41.8184397748 53.7503884443 59.3158249599
49098 22 43.3717632274 54.004349252 57.5958134192
49099 23 42.5629237781 56.0538082936 58.8318495568
49100 24 40.6680861786 53.1044019476 60.4151057749
49101 20 5.5759501345 32.8644271186 79.7472759486
49102 20 5.2808130661 33.0539389405 82.486965856
49103 21 7.0841780049 33.2216559675 79.8478313329
49104 21 6.1807510165 34.1718341941 83.0001257054
49105 22 5.193147479 33.7242458091 78.6335899902
49106 22 5.4108241625 31.4870522036 79.4317658917
49107 22 4.1811861535 33.0638541691 83.4180619445
49108 22 6.1235326644 31.9004049879 82.4880883347
49109 23 4.8543553428 33.4032168986 81.0222246815
49110 24 93.948221787 39.144321332 80.8961329066
49111 20 88.3860591676 84.8991726001 83.7322624429
49112 20 87.7936710293 84.4571966087 86.5540803758
49113 21 87.9972138351 86.3333262298 83.2688658162
49114 21 87.4370034197 85.6645159994 87.2985643791
49115 22 87.9778510774 84.1495439028 82.5709646793
49116 22 89.7881286142 84.8880413529 83.9631188973
49117 22 86.9444223466 83.4348055852 87.1101750358
49118 22 89.1853575478 84.3653404344 86.8899821292
49119 23 87.4860183233 84.6643874703 85.0406984573
49120 24 91.4732497751 84.2957467545 84.4471878402
49121 20 39.943806792 60.4036003681 56.9742408344
49122 20 41.6982410131 62.432012934 57.8616537933
49123 21 38.6052509324 60.8128373972 57.663723381
49124 21 40.9789192409 63.5522466849 58.7020161862
49125 22 40.5068234042 59.5496746908 58.0102886822
49126 22 39.4795683063 59.8896921995 55.7589705529
49127 22 42.2003631553 61.4250559927 58.8397069078
49128 22 42.7400883342 63.1927728785 57.227546863
49129 23 40.6332893386 61.8067922934 56.9020280375
49130 24 43.5602461105 52.1441214127 57.5167722101
49131 20 81.8729700025 43.7533124483 24.3337760151
49132 20 83.371572618 42.1612634803 22.4656908248
49133 21 82.779745719 45.0908393691 24.3922384478
49134 21 82.2503099283 41.1818072674 21.9095961647
49135 22 81.4114441736 43.5866243601 25.6639132845
49136 22 80.7577874058 43.9866944797 23.441405442
49137 22 83.3494972034 43.1933826526 21.4853927529
49138 22 84.5598098706 41.3769314829 22.3738346505
49139 23 82.8523326755 42.6326109979 23.8565354843
49140 24 78.8860541597 46.0536454812 19.6945715136
49141 20 44.2517865347 41.7934646236 13.2141277709
49142 20 44.4785272338 39.4374753547 11.716741174
49143 21 43.2037655807 42.5892084879 12.4222003342
49144 21 43.2019883227 39.6793695163 10.7598841991
49145 22 44.9820524743 42.8031342217 13.8197050341
49146 22 43.554540177 41.0558090324 14.2451244645
49147 22 45.4069106654 38.7374228003 10.9278070139
49148 22 44.0817310104 38.7646429089 12.9003014321
49149 23 44.9778431792 40.9337394729 12.047825623
49150 24 47.1958611068 38.3829066082 11.4517800749
49151 20 68.6997469614 23.1379620312 42.3211231564
49152 20 71.1502115216 24.6662167926 42.1413394833
49153 21 67.6423720182 24.0215398544 41.5937569534
49154 21 70.7585599923 25.6248136095 41.0247537881
49155 22 67.9133570864 22.6550155669 43.3767208416
49156 22 69.1643596068 22.2615867797 41.2906877021
49157 22 72.0220033184 25.4397917024 42.996668259
49158 22 71.7579402023 23.5701163339 41.4971302446
49159 23 69.7654469551 24.2055328227 42.7495358634
49160 24 70.7494866227 22.1757171585 40.3778318926
49161 20 27.524889443 47.3323358098 43.9792112883
49162 20 26.6170847876 48.8647998663 41.7571711453
49163 21 28.4500925183 46.1897460246 43.5553820361
49164 21 26.4934250499 47.9727099129 40.4305883919
49165 22 26.2553660239 46.6956097625 44.0980069516
49166 22 28.1155938632 47.8078926225 45.182227844
49167 22 25.2811480449 48.8465595873 42.2426431867
49168 22 27.0215512822 50.1625723329 41.2853559283
49169 23 27.6575290103 48.2545456085 42.7367208981
49170 24 81.3662644056 51.7165505647 14.3494214445
49171 20 9.6019725796 71.2969756127 37.4213165148
49172 20 7.4511443566 73.0491648764 38.0452275968
49173 21 10.4908073448 71.6023833613 38.6458472457
49174 21 6.5379518035 73.0761979053 36.8000245497
49175 22 10.2081204361 72.0225645577 36.3414919974
49176 22 9.7379608751 69.8710534936 37.3296474203
49177 22 6.5133695198 73.1208164339 39.0840816414
49178 22 8.312908677 74.1763205793 37.8808780059
49179 23 8.1202258527 71.6832953682 37.8873322585
49180 24 8.9714575811 75.7345081063 36.8743887641
49181 20 8.2456534943 27.1767339636 73.1010795167
49182 20 7.5384638461 29.9052926238 73.0096910418
49183 21 6.8568012346 26.8156699791 73.5866450979
49184 21 6.2205896567 29.9645033756 73.8378932488
49185 22 9.0582158313 26.3087773024 73.8944848837
49186 22 8.3165380248 26.8902212733 71.6786183735
49187 22 8.2028589936 31.1242109611 73.3751514013
49188 22 7.184892407 29.8227904387 71.6441021533
49189 23 8.3859165629 28.6661696697 73.5750461512
49190 24 3.7308392771 27.4175056465 79.1379570898
49191 20 7.6903913393 91.1099408332 95.0206566529
49192 20 8.7061784464 91.7967107229 92.467485291
49193 21 8.8323918232 90.1100929237 95.5232464946
49194 21 10.2141350511 91.3531445533 92.6100400869
49195 22 6.6924703517 90.2012007789 94.4092799165
49196 22 7.3034542206 91.803539135 96.2493031391
49197 22 8.1748250879 90.651221201 91.8092450684
49198 22 8.7733681511 93.0120745443 91.6768861207
49199 23 8.3219726925 92.0572193231 94.0129513925
49200 24 6.9087439368 85.1531334079 88.7506776681
49201 20 47.2706930207 74.6574897856 84.6537239226
49202 20 44.5438180786 74.3789279862 84.3018268475
49203 21 47.9558727322 73.7228391812 83.5767991418
49204 21 43.7751072432 75.1389396116 85.4592894756
49205 22 48.0557733373 74.5609566167 85.8289591302
49206 22 47.3509502483 75.9305677207 84.084159518
49207 22 44.6005967933 75.3504333082 83.2011429341
49208 22 43.7041104649 73.2597231741 84.0159689365
49209 23 45.8838705766 73.9814769836 84.9371497964
49210 24 44.1113831562 71.054239592 87.4116541089
49211 20 38.13801917 75.4562269265 82.5507600625
49212 20 40.9036196275 75.866867054 83.037915822
49213 21 37.7291563005 76.81751298 83.2252762263
49214 21 40.5829648765 77.1253527658 83.8847324675
49215 22 37.9533714225 74.6024883289 83.6588336274
49216 22 37.1754936776 75.2300474668 81.4523211066
49217 22 41.0912606516 74.7932161695 83.9692925302
49218 22 42.047706051 76.2385945862 82.1788454505
49219 23 39.6259582378 75.6376943177 82.1206636375
49220 24 37.6365518071 72.7137308224 84.0517011753
49221 20 72.9777939385 77.4664927532 76.8320116633
49222 20 72.2509889749 76.8035755361 74.1648151726
49223 21 71.8956309238 76.736694513 77.6939817714
49224 21 70.939559684 76.0051190149 74.3162562583
49225 22 72.5235642212 78.7755835468 76.6614884396
49226 22 74.0351688818 77.3505032867 77.7872410441
49227 22 71.8517607143 78.1209913801 73.8363966105
49228 22 72.8782674931 76.3042595906 72.9827515528
49229 23 73.0026755499 76.5673873078 75.5068320083
49230 24 70.0767477169 79.0075624798 73.0680599347
49231 20 4.6174375035 88.6239311139 81.3457791692
49232 20 4.0465822484 85.8279301914 81.1586058445
49233 21 4.8293708376 88.4881111902 82.9180912198
49234 21 96.2324659585 85.8659073877 80.2567877423
49235 22 3.3069738249 89.1043520011 81.1449490203
49236 22 5.6300629622 89.4955358309 80.8874336966
49237 22 4.7012305391 84.7582079823 80.5295500684
49238 22 3.5872162556 85.5750918623 82.4694738961
49239 23 4.8818093013 87.1419785992 80.8817277632
49240 24 90.4301864354 66.2404896514 12.842119619
49241 20 13.8131572416 68.4690775869 37.3527517737
49242 20 14.2869367964 71.3154965114 37.4882910777
49243 21 13.829339643 67.9038160174 38.7522021033
49244 21 14.2724381131 71.6227750578 39.0499395806
49245 22 14.3748642952 67.4951402276 36.5070576068
49246 22 12.4385978774 68.5913342262 37.0087120496
49247 22 15.2084918159 72.326475668 36.8618544186
49248 22 12.9128357776 71.5376537558 37.094394591
49249 23 14.662686544 69.7512288915 37.4917520537
49250 24 12.0782073801 72.336952136 35.6725882271
49251 20 58.7844248314 77.1788575842 85.6081114443
49252 20 56.4121596213 76.0843473037 86.625170694
49253 21 59.5953221583 78.0013538577 86.624235295
49254 21 56.4856819767 76.0948237716 88.182422822
49255 22 58.9939541903 78.030631844 84.4523325343
49256 22 59.4150707857 75.9412312684 85.5457203361
49257 22 55.0024199035 76.297898878 86.3742967026
49258 22 56.886032716 74.8296967275 86.3126539136
49259 23 57.3279151675 77.2445225886 86.0865679937
49260 24 56.8611511046 73.5829035022 84.3650598148
49261 20 33.2011707311 65.9843774261 61.7724631529
49262 20 32.8837898763 65.5654122482 59.0727147797
49263 21 34.7307350509 65.6425826594 62.0682362926
49264 21 34.2846433043 65.0029568755 58.5650737838
49265 22 32.379984016 64.8527318084 62.0129542162
49266 22 32.9047428122 67.0890835549 62.6151640432
49267 22 32.1165756791 64.4431206197 59.3170409785
49268 22 32.4207674091 66.3863183436 57.9526681085
49269 23 33.1726410639 66.4797646961 60.2912589574
49270 24 27.4763422388 61.5284175738 56.5022385376
49271 20 89.4380087971 34.6538452594 82.1702397804
49272 20 89.1742263007 32.1886949361 80.8237330299
49273 21 89.7255504262 34.0566865866 83.4747471193
49274 21 88.808953021 31.1510569102 81.890742582
49275 22 88.6674271639 35.7542485531 82.5215756161
49276 22 90.6983653068 34.9717873535 81.6019849343
49277 22 88.4315195553 31.757756652 79.6655220827
49278 22 90.5699350346 32.112366384 80.6928707205
49279 23 88.6534897199 33.5496068301 81.3562556371
49280 24 91.8133608237 36.3265256146 81.1475681372
49281 20 8.1945994211 56.6020456027 19.5984125043
49282 20 6.8960038034 56.0918790298 17.0905144502
49283 21 8.5821071332 58.0520074742 19.5305025424
49284 21 6.932007308 57.3289441063 16.2784011048
49285 22 9.3019059589 55.7685116219 19.1663517415
49286 22 7.6846947599 56.2626828733 20.8623235299
49287 22 7.9550250488 55.2703181552 16.6684624559
49288 22 5.6196519722 55.524278963 16.8257965548
49289 23 6.9393969595 56.4708091338 18.6463634798
49290 24 4.5374702495 55.3512301621 18.2401197273
49291 20 31.822953957 29.8950967755 41.8128273813
49292 20 33.4212700978 29.8463624916 39.5398079969
49293 21 31.7666429418 31.3501098011 42.3835142646
49294 21 33.3070578892 28.4151085986 39.1280453908
49295 22 31.7906826942 29.0943952969 43.0268816442
49296 22 30.6755000974 29.8909810202 40.9348619516
49297 22 32.418241832 30.5948687102 38.8690334288
49298 22 34.7149268091 30.2675726269 39.2472152136
49299 23 33.239428547 29.878166055 41.0739557715
49300 24 33.489741299 28.8994581612 43.9162589408
49301 20 52.215118191 28.7772015219 79.9908538283
49302 20 52.6473660336 30.0502794569 77.6190563176
49303 21 53.2905463334 27.8244977182 80.4081352881
49304 21 51.1240688865 30.4329511566 77.5624646828
49305 22 51.3693304842 27.8922206003 79.2449667266
49306 22 51.7565856386 29.2419077071 81.2458785641
49307 22 53.3350713222 31.1867891491 77.1536953532
49308 22 52.8524990175 28.8494143188 76.907872516
49309 23 52.8970240063 29.8669412679 79.1556361294
49310 24 52.3418647451 32.9500161201 76.8956187901
49311 20 67.9641492479 14.0524322863 81.4454926944
49312 20 67.2653127121 13.8198921139 84.2094094339
49313 21 69.2993376715 14.8129116111 81.7644637274
49314 21 66.5034302888 12.4329574219 84.2625400927
49315 22 67.3449151605 14.6867262964 80.3556594085
49316 22 68.3687092824 12.6749638314 81.2427917477
49317 22 68.5792675801 13.3845574548 84.5200554164
49318 22 66.6134332022 14.624428728 85.1870883888
49319 23 66.9966661412 14.3497020642 82.6936890181
49320 24 66.318221302 15.76982471 79.0738822635
49321 20 86.957985631 81.3505497037 79.3091350928
49322 20 88.0724199086 78.7544435311 79.2687258593
49323 21 86.7040248232 81.8322801493 77.8260600994
49324 21 88.7997861115 78.2355777482 80.6077494184
49325 22 87.3603942479 82.5440251903 79.9698073525
49326 22 85.7747995325 80.7983837191 79.8623300162
49327 22 86.7579038012 78.1937654163 79.3197986405
49328 22 88.8764888233 78.2926370825 78.2409095221
49329 23 88.167643519 80.3467731188 79.3182084624
49330 24 78.4546481761 83.0621426541 30.4120917606
49331 20 79.4398103224 35.6719334479 7.8055670088
49332 20 79.4881704468 34.3330034286 5.4470053929
49333 21 80.4959692471 36.7591476168 7.5417190344
49334 21 79.1393601882 32.9218606125 6.0094794736
49335 22 80.1175068426 34.5994050421 8.4439019422
49336 22 78.4585768516 36.3134300297 8.6073067802
49337 22 78.9258086139 34.3332840483 4.1498390648
49338 22 80.9251302732 34.4526409509 5.4221424895
49339 23 78.8589275909 35.4391126558 6.3726481057
49340 24 39.1925879165 29.0894376826 66.9467158387
49341 20 78.7405060872 43.4000122748 17.8214351691
49342 20 79.593122206 41.7391179461 19.9628439249
49343 21 79.846895934 43.6395679392 16.7986699861
49344 21 80.9920112963 41.1997669268 19.4992602184
49345 22 78.8445224475 44.5316578926 18.7359746967
49346 22 77.5740636294 43.4318158382 16.9631131168
49347 22 79.9208859888 42.8040696206 20.8333261632
49348 22 79.0042885836 40.5578026455 20.5730981827
49349 23 79.009994517 42.0074838973 18.5501109306
49350 24 79.0522745484 48.8187782393 19.8448901207
49351 20 73.2405474962 92.9093677425 18.4358051821
49352 20 72.5303926334 95.2632055938 19.7356355264
49353 21 74.6449554401 92.7337933645 19.0928293861
49354 21 72.0248095152 95.9911330362 18.4055917969
49355 22 73.5510999388 93.657967501 17.2136129486
49356 22 72.8231724965 91.5831591486 18.2059776666
49357 22 71.5343798595 95.6614984555 20.7757991294
49358 22 73.8637102591 95.6611242959 19.9967989058
49359 23 72.3785773881 93.7421534042 19.5353666168
49360 24 64.0279905774 90.758137298 21.7169039865
49361 20 37.1146927476 4.9855169799 4.045512152
49362 20 34.935774495 3.5226344431 96.605690129
49363 21 37.3008371334 6.1137764536 96.5463858372
49364 21 34.2835208256 4.8464512219 95.9335124625
49365 22 38.4477297536 4.682185817 4.4846295643
49366 22 36.3469173111 5.5928247311 5.0945190165
49367 22 34.6742369559 96.0246203176 95.6500865886
49368 22 34.1622931251 3.3610321189 4.2051604279
49369 23 36.5195919524 3.8245709263 3.2313211452
49370 24 33.3856313988 96.2004753153 5.7745914499
49371 20 96.1121736569 31.9082623389 76.762792143
49372 20 94.4677423492 33.1138980115 78.7524791934
49373 21 95.6353072856 31.5005219481 75.3300416117
49374 21 93.9997622677 34.220568478 77.844674538
49375 22 3.4861445311 30.9212293947 77.129468521
49376 22 96.6761256679 33.1913490424 76.6292171767
49377 22 93.3528403722 32.7772479389 79.5195063107
49378 22 95.6062163791 33.6930034851 79.440184482
49379 23 94.8406859 31.9617671573 77.7825640495
49380 24 92.3656203482 32.1121793042 81.0184830858
49381 20 33.0791947114 43.8397433088 88.7331857082
49382 20 31.3979086861 44.6653263988 90.967573117
49383 21 32.8141961964 45.0328446359 87.8466146084
49384 21 31.0972714721 43.4457532822 91.7976461218
49385 22 32.0490398769 43.0165922561 88.2775528925
49386 22 34.3973588746 43.4108629024 88.3992482925
49387 22 31.3926704522 45.7359840068 91.8259887092
49388 22 30.2711271428 44.7187376773 90.1119637216
49389 23 32.8431000231 44.3474778446 90.218505659
49390 24 25.0515076092 44.0063378571 89.4657901451
49391 20 31.8135999678 24.9020308612 43.8956801645
49392 20 33.9290046335 26.0159974393 42.4368320032
49393 21 31.1107412166 23.9056439278 43.0586852076
49394 21 32.8954823628 26.5438430519 41.4371711736
49395 22 31.1700455083 26.1332029244 43.6824092099
49396 22 31.7862863192 24.4114141258 45.2657589679
49397 22 34.3185982852 27.1731794477 43.1782291901
49398 22 34.9632752233 25.4568159628 41.5883316396
49399 23 33.2356869513 24.8565704735 43.2774750159
49400 24 35.8907232561 26.9081809326 44.1493603525
49401 20 4.4849663079 52.4904996341 17.9319993219
49402 20 5.7680717194 53.1380763089 20.3875150362
49403 21 5.3186873685 52.6201459249 16.7138293037
49404 21 4.7733310881 52.3851737153 21.3970910945
49405 22 3.8083408195 53.739350737 17.9859718398
49406 22 3.680334283 51.3235894769 17.7533381275
49407 22 7.0461446847 53.0171292281 20.965591571
49408 22 5.3492374974 54.4981463438 20.2565591869
49409 23 5.5779144722 52.340181027 19.0892748702
49410 24 9.2362783704 54.6049689009 17.790286385
49411 20 21.4487251151 37.918200423 17.0413124668
49412 20 23.9760794667 37.4615386685 16.1856095315
49413 21 21.9712389538 39.3678816748 17.1639432657
49414 21 24.8731270345 37.784344837 17.420055491
49415 22 20.9048841809 37.6152247116 18.3004529579
49416 22 20.4482224264 37.8461747059 15.9659778643
49417 22 24.6913790236 36.3619772338 15.6175417652
49418 22 23.9883331926 38.6804570058 15.4015581538
49419 23 22.6104905782 36.9771891058 16.7995118451
49420 24 20.3276495051 38.5941196852 14.0989216128
49421 20 36.9908459301 29.7982829869 42.6613277449
49422 20 35.2560550864 31.6630007411 43.9212165551
49423 21 36.2824683253 29.4808085922 41.3426958823
49424 21 35.8769728919 31.8090165131 45.3815613546
49425 22 36.506028668 28.7375406075 43.5379836161
49426 22 38.3986213101 29.7852809419 42.165846935
49427 22 34.6773237724 32.9320564607 43.5117924462
49428 22 34.2844562245 30.6217146593 44.1361712277
49429 23 36.5341841756 31.2923956876 43.0473668806
49430 24 33.5541902848 34.1771659679 43.0742128298
49431 20 7.7724538869 28.505935834 52.192481537
49432 20 9.780587004 29.1488355142 50.2915638445
49433 21 8.3478177648 27.6246029682 53.2296518635
49434 21 11.2089318064 28.7694377108 50.7995789999
49435 22 6.4318214416 27.9792127002 51.9868808536
49436 22 7.7534839967 29.8038018405 52.761671782
49437 22 9.7883321071 28.9236849933 48.8570360552
49438 22 9.6626051378 30.5571721336 50.5806956518
49439 23 8.7023433108 28.1739627561 50.9704763832
49440 24 13.1642710083 32.7165405487 55.3355154602
49441 20 42.9738445253 28.8386572312 81.8588454788
49442 20 42.9885302884 27.9914664261 79.1086791035
49443 21 43.7284308369 30.2330564066 82.1131804461
49444 21 43.0142537588 29.3637901869 78.3498834967
49445 22 43.1094773692 28.0811711828 83.0301520109
49446 22 41.6736400215 29.4018609231 81.5843058947
49447 22 43.7606085599 27.0713145049 78.3308013586
49448 22 41.6622281546 27.5486485756 79.2071766101
49449 23 43.7025202867 28.3583298839 80.51084209
49450 24 40.0119973736 30.2221122392 81.6568928511
49451 20 6.6796179704 58.9492421217 58.4506744955
49452 20 6.4104475762 56.2864420059 57.9858747703
49453 21 7.1390672137 59.0939483352 59.9344042681
49454 21 5.2135765915 56.581840986 56.9750826935
49455 22 5.280074101 59.1493239515 58.4690083144
49456 22 7.3303937096 60.015316275 57.7389294545
49457 22 7.1288713655 55.1649922364 57.4790756335
49458 22 5.9392123065 56.0402450092 59.2831795375
49459 23 7.2791619105 57.569902869 57.9751176827
49460 24 5.216569868 59.1238811008 64.9334567355
49461 20 50.483133544 80.6207514635 18.3521805184
49462 20 50.3437591044 78.6313450328 16.378956489
49463 21 49.5583981681 81.878582396 18.4214000387
49464 21 48.8349606406 78.2143441926 16.697927522
49465 22 51.7945628349 81.1256798024 18.7215695533
49466 22 49.8929903631 79.7413829354 19.2654104875
49467 22 50.4502075019 78.4750398726 14.9247853224
49468 22 51.1477344792 77.769094305 17.1208213753
49469 23 50.432715542 80.1196582601 16.865644549
49470 24 52.9865416832 76.9869137251 16.5202952664
49471 20 27.7755763545 45.8066066255 92.5867486537
49472 20 25.008198639 45.8556215291 92.1199845909
49473 21 27.9292623976 44.8122775697 93.83270002
49474 21 24.243510019 45.4758495661 93.4627497457
49475 22 28.7189261689 46.8083253328 92.8477249534
49476 22 28.0489934599 44.9769077803 91.4764301314
49477 22 24.1842057272 46.8374162393 91.4565061343
49478 22 25.0874269279 44.6924529676 91.3610019042
49479 23 26.3350620122 46.366629961 92.7088182133
49480 24 23.308485255 47.3629233546 89.8600607914
49481 20 71.6468148101 78.3328592362 70.5356544288
49482 20 69.3950289814 76.7907605708 70.9809043164
49483 21 71.5034181552 79.0340342694 69.1043069959
49484 21 68.5546665884 77.6608686495 70.0159467868
49485 22 73.0067913052 78.2058320624 70.6650200999
49486 22 71.1083991897 79.2705031173 71.4250317254
49487 22 68.9497790937 75.428819738 70.9191679875
49488 22 69.2343274463 77.3853001266 72.276057666
49489 23 70.8402203183 76.9721344221 70.3916029946
49490 24 36.7961894141 17.4815112003 77.2375070967
49491 20 56.5439573296 78.0874105587 20.286024253
49492 20 53.8817184531 77.7159636461 19.3711105658
49493 21 57.5644775552 76.8655924847 20.073969317
49494 21 52.5640219895 77.6715321973 20.1822885124
49495 22 56.9932294326 78.6991614547 21.4650010563
49496 22 56.7665822734 78.9314210075 19.1611135075
49497 22 53.7277517903 79.0377758651 18.8761909954
49498 22 53.7813501486 76.6431546207 18.4200904802
49499 23 55.0808998732 77.4624705378 20.3663750206
49500 24 61.0991630077 81.0932214598 19.8785644819
49501 20 33.2030415289 5.9430380881 29.8261578748
49502 20 32.1425797692 5.2459413942 27.2425860478
49503 21 33.3111736445 7.4867362857 30.0993879004
49504 21 32.5246902295 6.3275712316 26.1817501286
49505 22 34.5111969236 5.4440121163 29.5758451229
49506 22 32.55901937 5.4880506976 31.0027961808
49507 22 33.110811195 4.1964986339 27.1178038314
49508 22 30.8336760554 4.8997034827 26.9231473154
49509 23 32.1300454236 5.8071994564 28.7068595228
49510 24 30.5191949373 3.2635506425 26.1114081295
49511 20 34.7599194973 43.9218713343 39.6163236289
49512 20 34.9620592047 45.6477758883 41.8570717504
49513 21 33.2780605226 43.8415205668 39.4111906449
49514 21 36.2073557917 45.5316928818 42.8560778008
49515 22 35.1848712283 42.589956807 39.3596501642
49516 22 35.2227548847 44.979713977 38.7363938615
49517 22 35.2189197492 46.7274133259 41.0165222776
49518 22 33.8864439825 45.9273666265 42.7808717273
49519 23 34.8664614347 44.2834965582 41.158702914
49520 24 37.5103664923 52.2050158826 39.7504598345
49521 20 7.1156728867 30.0172598749 65.4854356403
49522 20 8.2574395208 28.4249302873 67.5880253407
49523 21 8.420657279 30.8029014308 64.9650732191
49524 21 7.2834928075 27.1934776043 67.3804603196
49525 22 6.0368586001 30.9137462033 65.4420331302
49526 22 6.9975881265 28.9195692381 64.6069089712
49527 22 9.4359112087 27.9891279288 66.9607468226
49528 22 8.3384263596 28.5776809315 68.9920591251
49529 23 7.4515465782 29.6110161224 66.9598114237
49530 24 15.3010963094 25.3189381614 70.5784021596
49531 20 7.5452922583 26.6073566388 61.5918376208
49532 20 8.3138253679 25.4298764738 64.1437929642
49533 21 6.785130969 25.5345476133 60.747827172
49534 21 8.2835371508 23.9020894119 64.2857865208
49535 22 8.2887192608 27.420592463 60.6328666443
49536 22 6.5610655109 27.3670876446 62.241659253
49537 22 9.379104432 25.8513672288 64.9263477036
49538 22 6.9985235255 25.8309755322 64.5847400167
49539 23 8.4999323377 25.7123669487 62.611048288
49540 24 4.2478333268 31.5886365267 65.2338133298
49541 20 4.1178325198 75.6946601121 70.8941928362
49542 20 5.3292012524 78.0993836649 71.6489662277
49543 21 96.1444449198 75.9648033213 70.6673585972
49544 21 6.4503516943 77.4252416607 72.4302114087
49545 22 4.297166266 75.2197580786 72.2124505392
49546 22 4.4971171399 74.6942509633 69.9368120379
49547 22 5.9792099644 79.1790211025 71.0548943713
49548 22 4.3904348927 78.4042301741 72.7268264073
49549 23 4.8209709553 77.0698836096 70.6272299834
49550 24 7.1942557502 80.6614413167 70.3824360851
49551 20 28.1721854981 48.2278867392 89.4645741265
49552 20 26.1766054345 46.5149842303 88.3999030717
49553 21 28.6285666329 48.8844432437 88.17540733
49554 21 26.4289760641 46.8531309412 86.8839020362
49555 22 29.380159668 48.1087169164 90.2256146908
49556 22 27.2271519656 49.1572055698 90.0365705683
49557 22 25.9888708705 45.1597782698 88.4424637227
49558 22 25.0501045108 47.3402867006 88.8171845315
49559 23 27.663889723 46.8746451164 88.9530979951
49560 24 26.1230070762 41.7369665286 85.8289591302
49561 20 30.3608318995 60.2318611258 56.1287337474
49562 20 31.4486073078 57.606383427 55.5404613644
49563 21 31.4277479118 60.9855120385 55.2197130735
49564 21 30.6559502599 56.3253546011 55.4544982033
49565 22 30.7961665586 60.2462662692 57.4619578332
49566 22 29.0515540262 60.7813144535 55.9795376191
49567 22 32.3083324585 57.5407184226 54.4116219434
49568 22 32.1585750908 57.4167780652 56.7569476645
49569 23 30.3575580033 58.7356905475 55.5808705979
49570 24 31.5303611737 62.7232961588 58.6301775489
49571 20 65.3556958096 16.9608681594 88.5450769846
49572 20 65.4362336569 14.4936599585 89.8824168257
49573 21 66.6736728929 17.4267903633 89.3541970536
49574 21 66.4741523025 14.8365772039 91.0039601351
49575 22 64.5423664455 18.1825926935 88.4789442807
49576 22 65.8865346987 16.5441479389 87.2277546805
49577 22 64.481097816 13.6510526081 90.6070703718
49578 22 66.1861429739 13.850199039 88.7916481409
49579 23 64.7787417535 15.8136949195 89.4588681931
49580 24 73.0570222274 20.9610081163 87.9543725644
49581 20 75.5221725506 41.3927397247 27.0125714525
49582 20 77.6777058302 42.7806846475 28.0923959699
49583 21 76.1279368935 40.5536868902 25.8552959042
49584 21 77.151263316 43.5819473655 29.3029892568
49585 22 74.1708017257 41.7536166294 26.5740564371
49586 22 75.5482701806 40.5945638232 28.2115657928
49587 22 78.2781383992 41.6805619735 28.6896481826
49588 22 78.6533269075 43.6990593107 27.5582831845
49589 23 76.4655223651 42.6428068462 27.0960090365
49590 24 77.0092697594 40.0011467461 29.0814867917
49591 20 80.2972905157 68.9744736253 61.0267631311
49592 20 77.8813421758 70.2517608555 60.1776079882
49593 21 80.4076675887 69.4121467817 62.5853248176
49594 21 77.3842711878 71.3352334287 61.2062661845
49595 22 81.6259311468 68.9447279395 60.5525158768
49596 22 79.6874104175 67.6715564646 61.1598703979
49597 22 77.7003424841 70.6973849027 58.7942465201
49598 22 77.1809154618 69.0296621618 60.4909666276
49599 23 79.4624469764 70.1489605138 60.4968596408
49600 24 77.9832071186 67.3160113338 60.5378301137
49601 20 9.4163707252 86.6338699039 90.1930628082
49602 20 10.0802326952 86.5899061545 92.9952373637
49603 21 10.7489213237 87.0133612473 89.4253809116
49604 21 11.6514129132 87.0346883427 93.0993472639
49605 22 8.8049846347 87.8762667543 90.3132615699
49606 22 8.6421503901 85.7364481766 89.4192072787
49607 22 9.4440304713 87.8359510607 93.2431180784
49608 22 9.8890652172 85.6195233112 94.0307239721
49609 23 9.886605118 85.9865738488 91.5634222313
49610 24 4.3087277967 96.2747459898 21.6038142566
49611 20 5.8408270477 11.6890814279 24.7924021074
49612 20 7.8549934879 9.6627173857 24.470344258
49613 21 6.5192905949 13.0846685599 24.6508762502
49614 21 8.4198247739 10.435824596 23.299786045
49615 22 4.8060326345 11.8306540549 25.7857957642
49616 22 5.3633900831 11.4939665664 23.4287775565
49617 22 9.0421082618 9.2275978684 25.1450475016
49618 22 7.1498897793 8.4989033989 23.9441823634
49619 23 7.0070730716 10.7080537448 25.3211831189
49620 24 26.3540506103 32.4981249001 41.4334295779
49621 20 46.4513771035 20.0270122911 75.8462882776
49622 20 46.1878752267 21.1129169015 78.4863581996
49623 21 47.2645193878 18.70707087 75.6960632105
49624 21 47.4245661436 20.4319464851 79.2346773385
49625 22 47.3696582268 21.0303211765 75.5188986544
49626 22 45.3537800066 20.021025738 74.8808630486
49627 22 46.670821691 22.3697188952 78.0434468093
49628 22 44.9996379741 21.2251647723 79.3122219093
49629 23 45.9698337377 20.0659248863 77.3187932632
49630 24 43.8396497689 26.3455384801 83.7657497244
49631 20 48.7699504154 90.5039894104 76.1778871961
49632 20 50.6964044986 90.6968686685 78.2849668114
49633 21 47.5355979959 91.359505266 76.5631780127
49634 21 49.9415375673 91.4001951191 79.4583312211
49635 22 48.4075768724 89.1757229389 76.5258555956
49636 22 48.9418767376 90.7469125109 74.7234354098
49637 22 50.4590937917 89.3163133972 78.6395765433
49638 22 52.0387954939 91.1417443966 78.4032012353
49639 23 49.9750248487 91.129210051 76.9239613775
49640 24 47.2921136561 88.0786870813 75.5581854092
49641 20 56.8535743733 58.9430684888 24.3319052173
49642 20 54.3116277984 59.7069152499 23.4313031336
49643 21 57.7776549699 58.2653719687 23.3625513127
49644 21 54.4143346002 59.7352578372 21.7731214618
49645 22 57.0639455912 58.2654655086 25.5668188762
49646 22 57.2147318977 60.3276459756 24.2389265643
49647 22 53.016287369 59.1207942843 23.6992949252
49648 22 54.4567081715 61.0487450058 23.8579385827
49649 23 55.3212973966 58.6558074794 23.9275322626
49650 24 56.1118965668 61.8959358109 24.2396748834
49651 20 80.2503334897 3.2571971324 54.4316394803
49652 20 80.9326134646 5.2691486415 52.5437238328
49653 21 78.7060834068 3.2877749491 54.6953284369
49654 21 82.0951272469 5.016731242 51.6026189758
49655 22 80.7731279481 4.0216940892 55.478163796
49656 22 80.4793191462 95.4109050839 54.4676523389
49657 22 79.9658786771 5.9531871664 51.6762348711
49658 22 81.4804766142 6.0453239604 53.6360826958
49659 23 80.3416284247 3.881844467 52.9700786622
49660 24 81.2993833825 5.4091872144 56.754796247
49661 20 40.0808427343 29.7561900353 69.8764788073
49662 20 41.6276183944 30.7637082159 67.7480720966
49663 21 40.7958616715 28.7803818782 70.8992439904
49664 21 41.4624269445 32.2701681824 67.5039329775
49665 22 39.371155571 29.0068419576 68.9118018974
49666 22 39.2118571343 30.5562367347 70.6686681557
49667 22 42.9859111714 30.6605337147 67.5046812967
49668 22 40.8200885037 30.1404519131 66.7410216154
49669 23 41.2583228994 30.5926237528 69.2523806455
49670 24 37.4379666156 31.4216678188 70.8300244701
49671 20 43.9269224885 91.7674327366 67.0803843449