ITEM: TIMESTEP
12500000
ITEM: NUMBER OF ATOMS
4000
ITEM: BOX BOUNDS pp pp pp
3.23005382 96.76994618
3.23005382 96.76994618
3.23005382 96.76994618
ITEM: ATOMS id type x y z
49081 20 20.1107304947 39.6993870533 18.5531977471
49082 20 17.4022829115 40.4486415911 18.3960507279
49083 21 20.5617798557 40.5174869519 19.7740804221
49084 21 17.2433586343 39.9296822683 16.9885559675
49085 22 20.4531800407 40.4091677565 17.4223939883
49086 22 20.81873394 38.4641927747 18.7535601965
49087 22 16.1566121649 40.2020704348 19.0556005089
49088 22 17.6657847882 41.8457534234 18.296898442
49089 23 18.5989387544 39.4490743013 18.843452033
49090 24 9.7769295942 36.2339211211 22.143071736
49091 20 48.3637066629 60.6314635459 60.3490666109
49092 20 46.3470801235 58.7328843507 60.3821797328
49093 21 48.0574570553 61.4100896099 59.081975229
49094 21 46.8003744419 57.7337847604 61.4078446525
49095 22 49.3464367721 59.6686574339 59.8890374203
49096 22 48.9772348169 61.5521767064 61.2134687562
49097 22 44.9520261689 58.78564085 60.4578535057
49098 22 46.8551888188 58.2464769104 59.1251906593
49099 23 46.9851157293 60.0908029681 60.8170466924
49100 24 43.8262735643 57.8786780537 61.7441205656
49101 20 9.920513329 30.8724951108 75.5654815208
49102 20 10.6833592132 32.2702617223 77.8671241122
49103 21 11.3743290441 31.0701449033 74.9364257447
49104 21 11.6746108065 33.3262335671 77.33890434
49105 22 8.9788472326 31.1526470884 74.4881825805
49106 22 9.8828728763 29.5528343093 76.0489892244
49107 22 9.9689576393 32.9425329287 78.9130871886
49108 22 11.3463232003 31.1267365382 78.2903921251
49109 23 9.7507571324 31.9960962978 76.6414709026
49110 24 5.3165827209 36.7709336432 74.793590329
49111 20 83.9482460544 74.8864754421 84.8406166275
49112 20 82.9971324289 76.030187706 87.1677020696
49113 21 83.2406167687 75.4724093279 83.6129990802
49114 21 82.8723502125 77.4961448991 86.6065562554
49115 22 84.2110931519 73.5117196441 84.4728177708
49116 22 85.0897133609 75.7097200348 85.0439723535
49117 22 81.8464046731 75.7906320417 88.0358458106
49118 22 84.2037970403 75.9964198049 87.9088186368
49119 23 82.8638380823 75.0329589136 85.9357816873
49120 24 86.707672879 76.7526898346 85.6135367581
49121 20 47.0085942423 64.9384143498 64.1208756905
49122 20 49.7347208652 64.8022202665 64.3616473735
49123 21 46.6581002656 64.0395895241 65.4350176383
49124 21 49.827044739 64.2185313382 65.8459383854
49125 22 47.0430169227 64.0466985559 63.0120538065
49126 22 45.9282084856 65.8351812978 64.0149885324
49127 22 49.7133002299 63.6146377931 63.5429862355
49128 22 50.9479332692 65.6118080349 64.1880373332
49129 23 48.3691319767 65.5870199634 64.4165552903
49130 24 46.9401230411 56.3680087921 58.9543868158
49131 20 78.3659723581 45.0217133887 34.6079171723
49132 20 78.8460190857 42.8879749041 32.7159793094
49133 21 79.658319511 45.9019237758 34.6468297675
49134 21 77.3437684144 42.414382429 32.4863388736
49135 22 77.7724617411 44.9713889266 35.9387092209
49136 22 77.5198104919 45.6633970503 33.6193875898
49137 22 79.0614414578 43.9095240685 31.7677654205
49138 22 79.6506492398 41.7181650102 32.4236671458
49139 23 78.776238326 43.475498968 34.171927734
49140 24 77.6010031184 48.2371471886 29.7240123124
49141 20 51.2043261141 37.4854848809 13.0255513479
49142 20 51.6030866752 35.4452862887 11.2235053216
49143 21 49.6418357521 37.4986740057 12.949877575
49144 21 50.0835311239 35.1814102523 11.0289704075
49145 22 51.4918677432 38.8745522825 13.0995414028
49146 22 51.5225488279 36.6436258497 14.2146304596
49147 22 52.255059725 35.3153593782 9.9365460666
49148 22 52.0669510015 34.4267304008 12.1360337415
49149 23 51.6622038872 36.9942133663 11.6664728359
49150 24 55.2796721445 36.2988378064 9.4320760731
49151 20 65.2417642207 24.6290814553 39.7791765815
49152 20 64.4855877308 23.125988925 37.4887587772
49153 21 65.7751286869 26.1051409567 39.7567270073
49154 21 64.9455233816 23.3501105071 35.963777912
49155 22 66.0535969465 24.1347231242 40.8526403862
49156 22 63.884126223 24.708403284 40.0888871651
49157 22 64.6223430535 21.7681638475 37.7380425903
49158 22 63.14806081 23.719499542 37.591465579
49159 23 65.5561517989 23.9499818368 38.3384751594
49160 24 62.355497302 24.6582659017 38.9333888748
49161 20 29.9967746385 52.6955390781 38.3408136567
49162 20 27.7276839296 53.7169947027 39.4559962534
49163 21 29.7835036839 52.9350012026 36.81714235
49164 21 27.4547345237 54.6782106366 38.250173501
49165 22 30.8625798822 51.545091942 38.4771012798
49166 22 30.5217205144 53.973106928 38.7926113368
49167 22 26.447309883 53.1881201513 39.85868549
49168 22 28.295658156 54.4500668391 40.5235670449
49169 23 28.5423228522 52.5558840188 38.8444324371
49170 24 83.3826103253 52.2600173393 23.8078947403
49171 20 6.4822207356 78.8621079472 35.3514657766
49172 20 3.9505270683 78.1195882817 36.072377727
49173 21 6.8918786942 80.3766123444 35.7410594283
49174 21 3.8106297407 76.5705676642 35.8476013657
49175 22 6.168160547 78.7984072805 33.9661399708
49176 22 7.6939365012 78.1298776698 35.6130033157
49177 22 96.5926880839 78.3018975319 37.2063618421
49178 22 3.5352370728 78.6341512295 34.8628133789
49179 23 5.4549656377 78.3748586479 36.4055668236
49180 24 95.9639129275 78.8152444611 33.4970374106
49181 20 10.5328067564 22.4181725595 73.2809567297
49182 20 10.216838354 24.8192480565 71.7782383589
49183 21 9.0014558246 22.2542906681 73.1214712132
49184 21 8.9317031269 25.3564476583 72.4234765364
49185 22 10.7331317899 22.1079942764 74.6628215595
49186 22 11.0176240185 21.4700522105 72.3280658462
49187 22 10.9176953515 25.9826036977 71.3439326387
49188 22 9.7604291572 24.0481051838 70.6228336085
49189 23 10.8778005874 23.941937406 72.9606761382
49190 24 8.9017890693 25.6923494117 78.4641892451
49191 20 95.4219427912 81.9032769276 5.0143740367
49192 20 94.5528636512 79.8235109609 6.6688702368
49193 21 96.5768798421 82.7331628526 5.5761278603
49194 21 93.0252636691 79.5815232594 6.4597524535
49195 22 94.6832582612 82.9462467274 4.3648517321
49196 22 96.1156346329 80.9506666638 4.1794650195
49197 22 95.2643280725 78.9139290476 5.8880553393
49198 22 94.7223579362 79.5676793553 8.0232717543
49199 23 94.7158101437 81.3587812142 6.2628322721
49200 24 94.1182773113 78.5971094322 92.3113672106
49201 20 51.6417186508 63.8309020242 86.4176992127
49202 20 48.9700322452 63.3015597734 86.9688362585
49203 21 52.0219583132 62.6158188225 85.5055917223
49204 21 48.4506987628 64.6848277016 87.5368104849
49205 22 52.7739255079 64.1698905941 87.1659248117
49206 22 51.2192924969 64.8117613355 85.4637793904
49207 22 48.7870682157 63.3908903706 85.5147586318
49208 22 48.1972991944 62.3252839168 87.6562609274
49209 23 50.46059043 63.2927670235 87.3418733492
49210 24 48.4796025896 60.6706567608 88.5333844981
49211 20 47.8776733822 62.6218053756 80.0916898323
49212 20 47.7154752089 64.219560277 82.3902456073
49213 21 46.9020523049 63.1946436764 79.0400208225
49214 21 46.5391175226 65.295362579 82.2815522523
49215 22 47.2138207661 61.6076458626 80.7648964376
49216 22 49.0046420054 62.1811389427 79.3601143341
49217 22 47.1050338713 63.1528313445 83.1038614461
49218 22 48.6809939778 64.9226996478 83.1961853198
49219 23 48.3121661822 63.8103232479 80.9907017378
49220 24 47.0074717636 59.9518962279 81.5144315951
49221 20 76.0054931744 80.7763083045 76.6753323436
49222 20 76.4661771443 77.9977058019 76.2348529905
49223 21 74.6272764004 80.5526544218 77.458822482
49224 21 76.3672119382 77.1927014883 77.633555001
49225 22 75.6021491586 81.0997692523 75.3366829441
49226 22 76.6555954263 81.8442532555 77.4246804213
49227 22 75.1740170712 77.7787289139 75.6503222031
49228 22 77.5768698262 77.3175772446 75.5803543637
49229 23 76.8507196418 79.4434583782 76.7396877896
49230 24 73.8353676717 78.6927072022 74.6416815438
49231 20 92.9038488888 82.1623824295 87.117003448
49232 20 93.9644041884 84.1196111372 85.3710813571
49233 21 92.3991076297 82.8221192903 88.4781959616
49234 21 94.5566052469 82.9972259688 84.4223997688
49235 22 94.2666315806 81.7254575922 87.3519756576
49236 22 91.9680758057 81.0862059679 86.8396576671
49237 22 93.4026971348 85.0869071641 84.457851388
49238 22 95.0048484111 84.5911457346 86.212379149
49239 23 92.7614811727 83.3575416341 86.0565416883
49240 24 10.619190847 57.5652258744 6.335849512
49241 20 10.8062893397 80.4749227713 34.3039125221
49242 20 8.9908016309 81.9847501739 32.6794052115
49243 21 11.0620367594 81.4978750341 35.4324713234
49244 21 8.629176407 83.0265039551 33.8640879482
49245 22 12.11305099 79.8679424098 34.3086830566
49246 22 9.8351207613 79.5462587199 34.8434506212
49247 22 9.055877334 82.8287606226 31.5454210964
49248 22 7.9147093552 81.0830256115 32.6714543206
49249 23 10.3334264759 81.3263228715 33.0822815279
49250 24 6.5773227442 79.675717931 32.3637080748
49251 20 58.5376665954 71.3366365271 92.7700868428
49252 20 58.7392450634 69.6090482551 90.4875263894
49253 21 57.6984266811 72.5847393108 92.4339980095
49254 21 59.1962809775 68.3082825119 91.0879589585
49255 22 59.8926854761 71.673847839 92.5450298617
49256 22 58.2191632619 71.007376106 94.1217382874
49257 22 57.8304114692 69.2909190812 89.4359509195
49258 22 59.9470321535 70.2136901193 90.0286196775
49259 23 58.0622968624 70.3158356817 91.6903558652
49260 24 60.3387772227 69.4965197646 88.2413529542
49261 20 32.5974642658 72.4428392941 65.9521061633
49262 20 33.4015331805 71.4235350871 63.5440151743
49263 21 33.9812934333 72.6015764915 66.635415077
49264 21 34.8615973603 71.9922576326 63.1687331262
49265 22 32.0901038896 71.1444120483 66.3627462907
49266 22 31.8872158631 73.6038564381 66.414660931
49267 22 33.7350964366 70.2149996778 64.1668973176
49268 22 32.6403055365 71.3031492456 62.3419340176
49269 23 32.8720038498 72.5901646246 64.4234772423
49270 24 32.9247603491 64.3065523769 61.2195488492
49271 20 95.2753657798 34.8910624264 80.0448263462
49272 20 94.8306771316 32.2233046963 80.8194301949
49273 21 96.4134656502 35.2383760468 80.9599271132
49274 21 94.513109197 31.9469878543 82.2530225852
49275 22 94.4284555944 36.0388904456 80.0480067026
49276 22 95.9424922921 34.560305367 78.8113157857
49277 22 93.8508467591 31.418019763 80.1219967574
49278 22 96.1522087308 31.8507353051 80.5914734772
49279 23 94.5055324657 33.74089591 80.8327128596
49280 24 3.9282093854 34.9947981671 77.7690007651
49281 20 6.3311070395 51.2142413427 21.685100423
49282 20 4.9004985718 48.9901433221 22.5049775796
49283 21 5.533791705 52.0396373529 20.583200491
49284 21 3.8164076999 49.0428998214 21.3361966245
49285 22 7.3009941214 50.3963285239 21.0392074663
49286 22 6.8052888158 52.3315753569 22.4288361072
49287 22 5.9108510111 48.058579534 22.0418615725
49288 22 4.1005706681 48.6183222499 23.6453224073
49289 23 5.3670662009 50.5015609028 22.612361376
49290 24 4.3429727513 49.4808535974 25.273290694
49291 20 31.9018080863 28.4699229755 43.3600707408
49292 20 30.3237901022 29.5804285776 41.2867590266
49293 21 33.4127579676 28.9437025303 43.3128330952
49294 21 28.8797212439 29.0077773566 41.5698107409
49295 22 31.9844038112 27.1135009964 43.7377848262
49296 22 31.2864091344 29.3650062055 44.3117456057
49297 22 30.3221063841 30.8416269463 41.9289103877
49298 22 30.3978736969 29.6976340627 39.8528860167
49299 23 31.4042693988 28.5887186388 41.8825146011
49300 24 33.3863797179 25.8280757956 43.0551306917
49301 20 55.6447583443 28.84838538 69.5989459467
49302 20 56.5615428294 27.1135945363 67.6501358293
49303 21 56.8358017938 29.1739042054 70.6274170632
49304 21 55.3543169786 26.5584352751 66.9146316556
49305 22 54.4357552356 28.7505426526 70.2511060762
49306 22 55.7079913116 29.8942549165 68.6242602683
49307 22 56.8944513063 28.1683503625 66.7586071152
49308 22 57.4486751685 26.0191777957 67.7335734133
49309 23 55.9547495476 27.4645562124 69.0271365847
49310 24 58.0394731286 28.339154206 65.4400687925
49311 20 71.1996941247 17.1222244737 85.7719933357
49312 20 70.7646400853 14.9252530219 87.4528116616
49313 21 72.2851310356 17.9882167972 86.4450128613
49314 21 70.0517725656 14.169076532 86.4002072528
49315 22 70.2852481369 18.0013123821 85.1328352512
49316 22 71.8178992733 16.2342502756 84.7938466813
49317 22 72.1215297639 14.5446391999 87.4043579973
49318 22 70.1140701339 14.5878546301 88.7287893332
49319 23 70.5665225933 16.4182432438 87.0113033696
49320 24 68.4757189192 18.0680998653 85.4852935657
49321 20 83.9726599663 74.3032542133 80.403925993
49322 20 85.1695964289 75.6307723656 78.2222950835
49323 21 82.9951680911 75.3713862441 80.907077074
49324 21 85.640569787 74.5154026891 77.2458321471
49325 22 84.5216455946 73.5825293426 81.5595178232
49326 22 83.1301461558 73.5238798301 79.4987404546
49327 22 83.8819262707 75.9701350951 77.7774193554
49328 22 86.1620546869 76.6012487489 77.9804009218
49329 23 85.1518238494 75.0870249714 79.6908713935
49330 24 71.7218338038 80.9976236898 45.6993163689
49331 20 82.7367173686 54.0978891444 8.0033196952
49332 20 84.6447440929 56.1683946618 8.639596751
49333 21 83.2256503859 52.7098506816 8.6541234963
49334 21 83.6147763381 57.2867576148 8.383288092
49335 22 82.1426455122 53.6299090629 6.7958412867
49336 22 81.7531454004 54.522279636 8.9160071329
49337 22 84.5719700567 55.8758018785 10.0077486326
49338 22 85.95074807 56.4944747265 8.1725614225
49339 23 84.0658256991 55.0133640709 7.7595734437
49340 24 37.4342250199 37.9785336536 60.9275173053
49341 20 74.9695388666 46.8578079358 28.2337347473
49342 20 75.9565718107 45.048372258 30.2845968873
49343 21 75.3305093112 46.4089099924 26.7629134798
49344 21 76.7957181851 43.9411405521 29.6552604915
49345 22 76.0179339801 47.7557909025 28.5576633945
49346 22 73.6368760201 47.3580592802 28.1805105485
49347 22 76.9233065983 46.0143587264 30.7432229795
49348 22 75.2235932142 44.3891966366 31.3460875858
49349 23 74.9968525151 45.5467528045 29.1040299058
49350 24 77.7849025468 51.995205904 28.0560089518
49351 20 71.591345654 88.8372020685 23.8324021921
49352 20 71.3735847846 91.5931679171 24.6038256844
49353 21 71.1906207551 88.7309407508 25.3580378365
49354 21 70.5729768458 92.6434338285 23.7678596663
49355 22 72.9366363859 88.3800726145 23.7745945386
49356 22 70.6073995262 88.0982369188 23.1106483826
49357 22 70.6124506804 91.4103909674 25.8143254314
49358 22 72.6376828899 92.184994816 24.8303793037
49359 23 71.4511293553 90.3924898588 23.4722736065
49360 24 61.7319603796 88.9567460509 25.8165703888
49361 20 37.3949382651 87.1033466237 6.0200962514
49362 20 36.1153125376 86.1120108445 3.720160763
49363 21 36.376569457 87.2709701108 7.1466158831
49364 21 34.5452454444 86.2664452068 3.7631750825
49365 22 38.3661629675 88.1378042933 6.0745084068
49366 22 38.021562004 85.8141798272 6.2251824654
49367 22 36.413050015 86.4257436434 95.9554007973
49368 22 36.4507465916 84.7957174792 4.1330598789
49369 23 36.6806676471 87.2851881744 4.5612200282
49370 24 39.2963236571 84.8124611199 5.1395397667
49371 20 6.2135554568 28.9277072087 75.2164841824
49372 20 5.2575871108 30.8656666986 76.896647729
49373 21 5.3831737703 27.8284263937 74.430374927
49374 21 4.3480800294 31.3613345882 75.8116785175
49375 22 7.4494887005 28.2898586827 75.5204888326
49376 22 6.3655577818 29.9819017956 74.2832366763
49377 22 4.5459730257 31.0459180712 78.1425990952
49378 22 6.481032779 31.5797502369 76.8248090916
49379 23 5.4525897244 29.381095067 76.4877848594
49380 24 4.4120519618 31.6628136613 79.9404358263
49381 20 30.6433223745 43.4466886811 80.9512279032
49382 20 29.7729336761 43.0946980662 83.506270063
49383 21 31.7641173647 44.4280156919 81.2533617555
49384 21 30.2255732152 44.5836660728 83.7746360142
49385 22 29.5288880969 44.230646519 80.6595705188
49386 22 31.1064383815 42.6587086279 79.777395794
49387 22 28.3231588844 43.0663554788 83.4059952984
49388 22 30.2020011623 42.3380538769 84.6337063856
49389 23 30.5139567033 42.6138094796 82.2075621975
49390 24 25.3996630886 45.8231631864 77.0143209135
49391 20 29.7000660999 23.6354071788 43.4796147232
49392 20 30.9772597902 24.8127938039 41.2188490648
49393 21 28.3100632994 24.1215339993 43.8221578091
49394 21 30.2420362362 26.2386223831 41.3672033341
49395 22 30.5189143176 24.4177748385 44.3839584026
49396 22 29.7603057906 22.2715020083 43.7784746793
49397 22 32.2555759592 25.005579522 41.8105824239
49398 22 31.0978327114 24.5462986506 39.8436255673
49399 23 29.9853627716 23.901995872 41.9602462516
49400 24 33.5096652961 24.3623056823 40.1675542146
49401 20 5.8722845135 49.050195933 27.2045153116
49402 20 7.126645116 51.4744693233 26.4381429735
49403 21 7.0955431018 48.2045017661 26.68452705
49404 21 6.7859821821 52.3905054891 27.6203936731
49405 22 4.70566433 48.4013096997 26.8004229766
49406 22 6.0604961309 49.2258638508 28.6280053936
49407 22 8.4521240988 50.9352118438 26.6687188082
49408 22 7.0337693569 52.3616952023 25.2451351864
49409 23 5.935264923 50.3898742713 26.3797740807
49410 24 7.8149771219 48.7152295784 21.8487952347
49411 20 8.9656206919 39.0058822913 20.8467023678
49412 20 9.2875101694 40.9919212859 22.8151558626
49413 21 7.4797488557 38.8454613759 20.4630952693
49414 21 7.8492501385 41.7220936857 22.9769798764
49415 22 9.389571546 37.6552597856 20.8506310433
49416 22 9.6325601244 39.8452157455 19.8770678436
49417 22 9.8212394413 40.9409420446 24.1154539063
49418 22 10.0599532466 41.7243386431 21.8315838945
49419 23 8.9436575251 39.5523423425 22.3706542942
49420 24 11.045938544 41.035323796 20.1420663587
49421 20 34.747198072 27.3567982564 39.7063090053
49422 20 36.0424449615 27.3418318736 42.2126168812
49423 21 33.8759675145 28.649332489 39.8488638013
49424 21 37.145654452 26.2844569304 42.3868817007
49425 22 33.8557628978 26.2589205398 39.9962826717
49426 22 35.1724304226 27.351092323 38.3614859729
49427 22 36.5860988159 28.4493441992 42.9247360818
49428 22 34.911454123 26.7683387936 42.8156685673
49429 23 35.9625618934 27.5715658493 40.6432045672
49430 24 36.4143595735 30.0621590232 43.9009183984
49431 20 11.8957110501 11.3172977717 54.9783801512
49432 20 12.7827217874 10.8268307001 52.3746037074
49433 21 10.3460450073 11.2749054925 54.6236768793
49434 21 14.3566240162 10.8711499011 52.1623616917
49435 22 11.978334837 12.4204792002 55.910131019
49436 22 12.2578788053 10.0667910127 55.6251149669
49437 22 12.458026113 9.4261830599 52.5963867922
49438 22 12.3255362095 11.429162129 51.1779478645
49439 23 12.5606861449 11.7305850781 53.6574097913
49440 24 16.3469658459 17.4529815331 56.1688623612
49441 20 45.3520027486 30.4957164243 66.430282093
49442 20 45.6358963219 27.8271168352 65.6699898479
49443 21 46.5652151525 31.1255205196 65.6618518773
49444 21 46.2475536781 28.2205456225 64.3004722839
49445 22 45.3497577912 31.1866020693 67.7021440094
49446 22 44.1852796712 30.6310686486 65.6369702659
49447 22 46.3873958171 26.668905888 66.0907322837
49448 22 44.2653498191 27.5602475223 65.4389463138
49449 23 45.8178314126 29.0368682631 66.6196068351
49450 24 42.799392626 31.283322318 64.7657397085
49451 20 10.0676422257 52.4108971857 55.2144748395
49452 20 11.9045412159 50.5249458759 56.1480029652
49453 21 10.3989885864 52.4267054275 53.665454222
49454 21 11.1219771225 50.1256240754 57.4525103041
49455 22 9.640754219 53.744495431 55.4342935865
49456 22 9.0390775693 51.4214322043 55.4386899615
49457 22 11.5552539039 49.5252850463 55.1721948081
49458 22 13.2687550681 50.4213972151 56.5958719699
49459 23 11.4378613389 52.0341184992 55.9349190904
49460 24 3.3802592437 51.8304821536 53.4150479302
49461 20 44.9942126603 79.924253425 20.0500231046
49462 20 45.7268170973 77.9483167388 18.0241361159
49463 21 44.7583050518 78.8666914019 21.1523907361
49464 21 44.7844026818 76.7082583857 18.1679069304
49465 22 43.9614387088 80.8425345483 20.2497307748
49466 22 46.3236951504 80.3072992842 20.3037032927
49467 22 45.847857718 78.1244523561 16.5774481406
49468 22 46.9104708952 77.5170042951 18.7535601965
49469 23 44.7945049901 79.1040021089 18.6776058039
49470 24 48.7491845593 77.7457093319 18.7599209092
49471 20 25.4003178678 43.8990476006 80.8553495135
49472 20 23.4638550162 45.4494713165 79.4620728168
49473 21 25.23325562 42.41354057 80.4853992392
49474 21 22.256909785 44.6599946249 79.0052239825
49475 22 25.8125481734 43.825712325 82.2220608808
49476 22 26.3868831125 44.3651568842 80.0532449365
49477 22 23.0476960351 46.7922364713 79.7092987523
49478 22 24.3282571615 45.2637946301 78.3480126988
49479 23 24.064474665 44.6537274521 80.7088660421
49480 24 24.2813001355 48.3988776625 79.3748936371
49481 20 75.7185127847 78.5901874801 72.3370456759
49482 20 73.4578406661 76.780190563 72.4559348791
49483 21 76.1282175132 79.302026061 70.9888552073
49484 21 72.4260021135 77.3006465241 71.4333567758
49485 22 76.968766986 78.4278957669 73.0184837917
49486 22 74.9316552101 79.5343791536 72.9931344809
49487 22 73.3094863968 75.3739118212 72.480348791
49488 22 73.0916319875 77.3908189803 73.6936547348
49489 23 74.8502755038 77.2549055167 71.9790685078
49490 24 39.6923715614 19.4828907372 70.6283524621
49491 20 52.4977957457 77.7939759164 21.1636155231
49492 20 49.8254545608 78.7886791317 21.4191665091
49493 21 51.8878221076 76.4067793127 21.5953021264
49494 21 49.5266881446 78.2494216523 22.8443403091
49495 22 53.5474068778 77.991532169 22.116132247
49496 22 53.0088977175 77.6968815081 19.8405872856
49497 22 49.1999533006 80.0739172527 21.4619142399
49498 22 49.2398012948 77.8474807348 20.5073396383
49499 23 51.3839227074 78.8991497446 21.422721025
49500 24 56.2247992169 82.3475914163 20.4210023177
49501 20 30.1812353062 9.2889787458 31.5184816074
49502 20 28.8258422659 11.6442009875 32.1595104897
49503 21 31.7194052962 9.116706326 31.8046201381
49504 21 29.8527232042 12.7087317325 31.9064850809
49505 22 30.1393294344 9.723228342 30.1294142058
49506 22 29.6287887019 7.9966690089 31.7490574421
49507 22 28.0199025533 11.5336836047 30.9726763355
49508 22 28.1310279455 12.223437417 33.3006971765
49509 23 29.6403876486 10.3580835915 32.539937232
49510 24 27.7214167568 10.7968043946 29.2231997287
49511 20 39.0012988366 50.2990470359 33.9374232238
49512 20 39.5190421408 52.8255595285 32.7280459555
49513 21 40.4768906386 49.8042210053 34.0322726747
49514 21 41.0753588699 52.6361412465 32.2617495921
49515 22 38.3274374521 49.1468226418 33.4823516475
49516 22 38.7267592525 50.5976263723 35.3304193008
49517 22 38.936662771 53.6195261348 31.6848890759
49518 22 39.5876068819 53.4937149796 33.9466836732
49519 23 38.9770720045 51.3619408327 32.7974525556
49520 24 39.4857419392 58.3885640069 37.0769026311
49521 20 8.6182603016 22.8300287055 66.0126264736
49522 20 10.1679731143 21.5516189967 67.925891432
49523 21 9.6788343091 23.6028552962 65.1926557772
49524 21 9.3135610295 20.310344625 68.2381275927
49525 22 7.4831162918 23.7009786433 66.0546258853
49526 22 8.367592098 21.6574126149 65.271042207
49527 22 11.1060472788 21.1310636406 67.0309952817
49528 22 10.7632329273 21.8439311603 69.2007466249
49529 23 9.3298276167 22.7098299439 67.4220855717
49530 24 16.7444168485 18.242177605 72.2616525226
49531 20 9.4446384806 17.0859309955 63.0504987023
49532 20 10.468909656 17.792905502 65.5372567406
49533 21 8.3822965691 16.0495089881 63.2527319495
49534 21 10.2437030111 16.7123326654 66.6323282605
49535 22 10.0204139341 16.8388921398 61.7612383659
49536 22 8.7358118843 18.3048493328 63.0978298878
49537 22 11.8024798394 18.2896023304 65.6828983531
49538 22 9.4123952797 18.7620723267 65.748095658
49539 23 10.4235895781 16.930841854 64.2233018727
49540 24 4.686526068 21.6000726609 63.7761811872
49541 20 92.7209783993 82.4907074516 72.621968188
49542 20 92.3403645773 84.7574596632 74.3103632451
49543 21 91.3626856223 81.7713856794 72.2480892382
49544 21 93.9357809813 85.049584747 74.3764024091
49545 22 93.3228140667 81.6034815726 73.6799979105
49546 22 93.4384293737 82.4997808212 71.3868674493
49547 22 91.8146703822 86.0991023393 74.238337528
49548 22 92.1014636922 84.0174655747 75.5308717606
49549 23 92.2365352967 83.9283220573 72.9690947285
49550 24 90.5871463748 87.5868543273 74.0520996023
49551 20 28.1979089685 47.0944638635 81.526685321
49552 20 27.3341616025 47.6727274781 78.9017688616
49553 21 29.6970728234 47.444209521 81.7576353152
49554 21 28.3976166387 48.7049401903 78.4118069054
49555 22 27.9904374872 45.9951830485 82.4357059949
49556 22 27.6245094283 48.3164690173 81.9173079115
49557 22 26.9849771843 46.8534115609 77.7778870549
49558 22 26.1688416234 48.3449051446 79.4093163175
49559 23 27.9843573942 46.7739026524 79.984212496
49560 24 26.729706818 43.9286997465 74.448615206
49561 20 35.7093494048 65.6740120633 61.4106508493
49562 20 38.5320091966 65.3698203333 61.0726912182
49563 21 35.0875897403 67.109849411 60.9654945016
49564 21 38.7600594542 63.90405022 60.5154740794
49565 22 36.0295364563 65.9084230335 62.7538837036
49566 22 34.7209133622 64.6724804358 61.1300311722
49567 22 39.4603926283 66.1775373039 60.3592624592
49568 22 38.7540729011 65.2298846544 62.4738252659
49569 23 37.0676421818 65.6292999947 60.5556026932
49570 24 34.6299925869 68.5818866971 63.4123110059
49571 20 68.1428104423 11.4304062095 90.6220367546
49572 20 69.0157247178 11.0821665443 88.0134897764
49573 21 69.2937252779 10.5509909115 91.334249495
49574 21 69.2221672603 9.6194364775 87.5667432505
49575 22 67.0441844066 11.1579245031 91.4943897908
49576 22 68.510702839 12.8201377443 90.7504670268
49577 22 68.3797469897 11.7162079966 86.8630426402
49578 22 70.3279023279 11.470862213 88.3784824364
49579 23 67.9885631598 10.8988190012 89.1842350691
49580 24 73.7500592899 17.1203536759 3.567403571
49581 20 72.0121816297 47.4725521084 37.0517404001
49582 20 74.2844526949 46.2343645532 38.4032047649
49583 21 71.3855578908 46.1094887969 36.5518632153
49584 21 74.467697344 47.1188777754 39.5436431325
49585 22 71.8700945332 48.3244199081 35.9751897789
49586 22 71.2954789744 47.8467116779 38.2152831211
49587 22 73.3903048638 45.1914882933 38.8776390989
49588 22 75.6323625438 45.8197957503 38.1679519356
49589 23 73.5662534014 47.1273899056 37.3728628505
49590 24 70.0573849592 47.5326047193 39.6477530327
49591 20 84.8908475497 69.9637515269 59.2671842159
49592 20 82.1144900046 70.3148067429 59.0379179397
49593 21 85.2307715185 70.0744092196 60.7688736478
49594 21 81.5203246083 70.7970984279 60.3814314137
49595 22 85.9463516951 70.6617462037 58.6077279747
49596 22 84.8197572315 68.574964745 58.9831035628
49597 22 81.3938586738 70.9580805827 57.973153345
49598 22 81.9353611107 68.9032897672 59.0135040278
49599 23 83.5921396842 70.8077619757 59.0921710773
49600 24 83.5659485143 67.5450905302 58.2783740137
49601 20 96.6741613302 79.4385943038 93.8740446524
49602 20 4.0663341321 77.7192375424 95.9683093024
49603 21 4.4146149549 80.1757821955 93.2372250652
49604 21 5.4885277511 78.306106827 96.0654037107
49605 22 96.1055323245 80.3757704854 94.7962544512
49606 22 95.8721502931 79.158629406 92.6767340302
49607 22 3.2845771943 78.2690650297 3.4870621574
49608 22 4.2457193252 76.3293282818 96.0680228277
49609 23 3.6158282379 78.0954549894 94.4990782131
49610 24 96.3211417764 93.7968742412 14.4768227779
49611 20 92.7110631707 7.310881288 20.6201487485
49612 20 91.5566873591 7.4957067613 23.1676141771
49613 21 91.3332205562 7.3041651238 19.954051175
49614 21 91.6257197996 9.0044491012 22.7797977833
49615 22 93.6507649293 6.4833899843 19.9502160394
49616 22 93.049677581 8.7129320266 20.5923674005
49617 22 90.1849248376 7.112801212 23.2247670513
49618 22 92.2607621289 7.3808771895 24.4478946838
49619 23 92.3764709757 6.7631116784 22.0645917664
49620 24 32.6623809511 31.3833164629 49.6320140634
49621 20 49.9097340039 21.1653927811 71.7105154768
49622 20 48.8362701991 23.7611247941 71.9125616443
49623 21 50.3916515293 20.38424114 72.9418746199
49624 21 49.2305408454 24.4949452497 73.2285743899
49625 22 51.2239694915 21.6942673325 71.3273760777
49626 22 49.3493365087 20.2537529902 70.7899893961
49627 22 49.722747759 24.3094556431 70.9702407687
49628 22 47.4651624569 24.14707039 71.7787995983
49629 23 48.9603040964 22.2449366788 72.2488375574
49630 24 45.5788369876 30.9977450266 69.5028804772
49631 20 45.5112076454 83.19599824 81.8989740926
49632 20 46.3890795352 84.5293158657 84.2077257158
49633 21 44.737258576 83.8096199339 80.6084041977
49634 21 47.5803100644 85.2420898455 83.5466792965
49635 22 44.8258408541 81.9288133182 82.1763198734
49636 22 46.8761417547 83.0945074568 81.45802704
49637 22 46.0517746834 85.4233701569 85.2691228744
49638 22 46.9986790137 83.3589447325 84.7362261076
49639 23 45.3258115788 84.265813989 83.0485793697
49640 24 45.5786499078 80.2104854956 82.3802368388
49641 20 53.8754512803 73.0426170839 30.8813814005
49642 20 53.0866293681 75.3879428051 29.5793996388
49643 21 55.3358896198 72.6350637729 30.5241525516
49644 21 54.291142562 75.7866098263 28.6716885233
49645 22 53.3788479918 71.730345934 31.1301975142
49646 22 54.0934927694 73.858565565 32.0221939277
49647 22 51.9519904737 75.6520994611 28.7575581445
49648 22 53.2936331499 76.2303630757 30.7344302296
49649 23 53.3344165429 73.8522983922 29.7459006472
49650 24 53.5390818274 75.6403134347 32.5455496255
49651 20 82.2130810511 24.4456497264 52.0217712334
49652 20 83.5998099554 25.5120980392 49.8229289837
49653 21 81.1758171847 25.387128743 52.7101313013
49654 21 83.702703837 24.58156319 48.5394681207
49655 22 83.4146009685 24.7147639967 52.7250976841
49656 22 81.6288308834 23.178932504 52.2791930172
49657 22 83.4712861433 26.869642497 49.3122947114
49658 22 84.8423938855 25.2305429632 50.4708798181
49659 23 82.3431950414 24.99865757 50.5871499043
49660 24 83.9880005087 24.9418788553 54.7548198084
49661 20 39.8085481077 36.8674668121 65.1558945995
49662 20 39.5598255339 36.3437369548 62.3792564347
49663 21 38.8615502374 38.0505593707 65.5651316286
49664 21 40.6806205242 35.4921497747 61.9398995603
49665 22 40.9703135708 37.0133890442 65.9855934447
49666 22 39.0525586976 35.703924091 65.3942342452
49667 22 38.5328510557 35.3829887204 62.6746554148
49668 22 39.2038127036 37.2798841975 61.3428344273
49669 23 40.1118044387 37.0780251098 63.6076223012
49670 24 37.1820414701 34.8188496295 63.8994667653
49671 20 46.0387726383 85.6673221962 74.379115066