ITEM: TIMESTEP
12750000
ITEM: NUMBER OF ATOMS
4000
ITEM: BOX BOUNDS pp pp pp
3.23005382 96.76994618
3.23005382 96.76994618
3.23005382 96.76994618
ITEM: ATOMS id type x y z
49081 20 15.3215815458 40.7240230342 22.9216042602
49082 20 13.0148878002 42.2992348216 22.2624286387
49083 21 15.0539639138 39.1736928582 22.8201134769
49084 21 12.7945078138 43.1766390119 21.073349527
49085 22 15.115419623 40.9777032223 24.2680174708
49086 22 16.6441420839 40.8491794102 22.4145245037
49087 22 11.7575245671 41.6386561017 22.4202304371
49088 22 13.2721225042 43.2619473937 23.2911803749
49089 23 14.2671998791 41.3407315445 21.958891688
49090 24 6.076023753 36.6385746955 25.8706364466
49091 20 44.9334117303 60.9473477624 65.6221909629
49092 20 43.8059754077 60.6189292004 63.0707968589
49093 21 44.8495999867 62.4497855135 65.5660670275
49094 21 44.4342828647 59.311428585 62.556233911
49095 22 46.2471795185 60.6872133218 65.1014543821
49096 22 44.672061271 60.5797359855 66.9691654129
49097 22 42.487437085 60.6541001999 62.5233078689
49098 22 44.7299624644 61.5414196188 62.5471605415
49099 23 43.8128038198 60.4026649692 64.6617233482
49100 24 41.1299861671 59.7210397736 61.7588998686
49101 20 6.8959663875 31.363298926 75.0145315548
49102 20 7.6611788309 31.6450410818 77.6561916549
49103 21 8.4515535054 31.5848013911 74.6962153011
49104 21 8.5822100271 32.8381424088 77.6758350323
49105 22 6.2045475651 32.2532374619 74.1419914388
49106 22 6.7021610845 29.9808728568 74.8470951475
49107 22 6.8444633228 31.7475608038 78.8188925169
49108 22 8.486630965 30.4573650685 77.5366476725
49109 23 6.6993735957 31.8363301616 76.4556071365
49110 24 95.208297677 37.3504132764 77.2806289871
49111 20 84.8954310044 72.1839208721 86.4017038911
49112 20 83.9947353809 71.9296794446 89.1099643946
49113 21 84.68206651 73.5488549814 85.5998799338
49114 21 83.7074743715 73.236338201 89.9668833485
49115 22 84.4979800018 71.1435701892 85.494554015
49116 22 86.2572782973 72.1885978667 86.8132794175
49117 22 82.9576585943 71.0200039914 89.5216334609
49118 22 85.2931626268 71.3997759544 89.5324840884
49119 23 83.8837035287 72.4216992784 87.5864801677
49120 24 87.5978920346 73.2577588364 87.5327882695
49121 20 45.059690585 60.9457575843 70.3777590905
49122 20 46.3818769635 58.5248516301 69.6068032977
49123 21 44.6458701012 60.9525859964 71.8780454241
49124 21 45.9549608948 57.5973100575 70.7904570956
49125 22 43.9888458973 60.3535565257 69.6911762806
49126 22 45.3561185039 62.3639158923 70.146996176
49127 22 45.4152357158 58.2974561518 68.577583862
49128 22 47.661502691 57.9816654752 69.2865227062
49129 23 46.3308041823 60.0051204267 70.2244472069
49130 24 45.7430930386 60.97550327 60.8353805113
49131 20 77.1513568558 49.2240865929 39.5912549377
49132 20 77.6149405624 47.3177435866 37.5616263533
49133 21 78.43388232 50.0165565609 39.8653268223
49134 21 76.303978971 46.4643791486 37.5484372285
49135 22 76.6140637141 49.144016445 40.9254144225
49136 22 76.418658879 49.9810114018 38.6477180435
49137 22 77.3807166719 48.2450980794 36.5437252446
49138 22 78.7178694332 46.4400587765 37.2763296816
49139 23 77.653478998 47.7693541869 39.0722956149
49140 24 74.191380502 52.1311193676 34.8412992037
49141 20 46.5976734952 37.0186272782 12.6486791216
49142 20 47.2794857706 34.3533951251 11.9438466787
49143 21 45.4591059254 37.4973644473 11.6827955471
49144 21 46.0168843035 33.8913080569 11.081530473
49145 22 47.4713360898 38.1165049948 12.9497840351
49146 22 45.7782640381 36.5327810772 13.6904329028
49147 22 48.3538849742 33.6143364356 11.3323015704
49148 22 47.085296954 33.8820476075 13.2843762301
49149 23 47.3918271813 35.903818841 11.801946662
49150 24 50.0288102868 33.7422054685 11.8424681434
49151 20 60.5250151484 30.4445501032 41.5609244512
49152 20 61.5747198205 29.2266607047 43.8609768644
49153 21 61.5694815865 30.1003232993 40.5150549147
49154 21 62.8679088324 28.4867601561 43.4560426704
49155 22 60.1900487939 31.8461518503 41.3006029307
49156 22 59.4945796942 29.4553657415 41.4062094692
49157 22 61.8872366009 29.7311213442 45.1784862483
49158 22 60.545406845 28.2448659945 43.8490972981
49159 23 61.3643486026 30.417797694 42.8690798458
49160 24 59.2191982511 27.8165468274 42.4545110429
49161 20 31.2438484834 52.5332473649 34.3852922284
49162 20 28.5397972751 51.8381524247 34.4337458927
49163 21 31.5863915692 52.4700143976 32.8691041132
49164 21 27.9861346522 51.0341770499 33.320247014
49165 22 32.4353596323 52.0596548899 35.0394166957
49166 22 30.9629481867 53.9289560988 34.5824743215
49167 22 27.8853921881 51.4562290442 35.5838188692
49168 22 28.1515131819 53.1702540318 33.9531379257
49169 23 30.0748804486 51.518994312 34.5893027337
49170 24 77.8500063119 54.2218295018 27.9536763096
49171 20 94.5616564011 81.5256563822 42.6922894493
49172 20 93.4612531074 82.1748232351 45.105712212
49173 21 95.8915130508 82.3298188368 42.792470674
49174 21 92.017277789 81.4856213082 45.4027949102
49175 22 93.6491747512 82.4254166068 42.0806320931
49176 22 94.8518171472 80.3199271696 41.993827073
49177 22 94.0326883098 82.1548992381 46.4071327344
49178 22 93.1715600608 83.5168400708 44.5640226954
49179 23 94.2267835865 81.1753494853 44.1574047833
49180 24 92.4362429669 83.8388979202 42.7253090313
49181 20 7.6009765562 22.6582894632 68.1379463679
49182 20 5.6897881835 24.0108763067 66.5648859981
49183 21 7.115364205 21.13162488 67.9888437795
49184 21 4.3096164257 23.4358865884 66.7545848998
49185 22 7.881839437 22.7845683178 69.4893171929
49186 22 8.760450292 22.8562198754 67.3313518761
49187 22 5.4610457307 25.3642114694 66.3187825413
49188 22 6.1764668894 23.327567393 65.3991918595
49189 23 6.4254513749 23.6826448244 67.876315289
49190 24 5.3854467897 22.2817913964 75.1598925475
49191 20 96.2117936423 73.1005182773 8.4296464626
49192 20 3.7955436269 71.5404599525 6.3779237556
49193 21 3.4243081145 74.3502112392 8.0883287494
49194 21 96.364076587 70.4010505237 6.3247650348
49195 22 96.24855482 73.0059494461 9.8511628528
49196 22 94.8992418727 73.2252069538 7.8556482671
49197 22 3.2912990645 72.4866159637 5.3987855784
49198 22 5.0493111865 70.9955900795 6.1218489463
49199 23 3.6027223636 71.9758881515 7.8333296488
49200 24 95.1738749966 74.4710647802 94.4728870433
49201 20 51.0043378242 68.8166718269 87.8187397205
49202 20 50.0015901782 66.5847164553 89.2152903134
49203 21 51.8326335711 68.0533863052 86.6585644355
49204 21 48.889400858 67.2156430293 90.1112154024
49205 22 51.8372170258 69.868060217 88.1291050833
49206 22 49.7519322054 69.1458387081 87.2060534255
49207 22 49.3145396688 66.0627638559 88.0711103501
49208 22 50.487529919 65.5693409237 90.079411839
49209 23 51.0053667631 67.7640674182 88.9332675379
49210 24 51.2452030471 64.5355380334 91.2725131661
49211 20 47.8011577503 61.7971576845 84.3200671265
49212 20 47.228693609 64.1998233597 85.7010900973
49213 21 46.4369719601 61.4848279839 83.6264688247
49214 21 45.6247650747 64.2476222447 85.6684446749
49215 22 47.7394214213 61.0550121785 85.5331859905
49216 22 48.7092430253 61.3941878282 83.3488424242
49217 22 47.6215611569 63.5131470099 86.8925077063
49218 22 47.7140721105 65.5406241768 85.6329930557
49219 23 47.7776792373 63.3776077058 84.484790877
49220 24 48.4585561138 60.270773721 87.1522679874
49221 20 77.3353498241 79.7412893955 74.292216506
49222 20 76.1117544922 79.0771561598 76.7110645825
49223 21 76.0577819743 79.046568615 73.6396822169
49224 21 74.7850781988 78.757998047 76.0044642356
49225 22 78.3173316141 78.6829790533 74.2638739186
49226 22 77.6249493309 80.8213009927 73.4598985438
49227 22 76.7886091533 77.8034234455 76.8117135067
49228 22 75.7681824675 79.5368111908 78.0189393575
49229 23 76.853151679 80.1161972841 75.7350693456
49230 24 76.6571856045 75.8432014612 76.4938649524
49231 20 93.1131911679 78.4602605696 87.9870179868
49232 20 93.1031823995 80.9986526286 86.6725954194
49233 21 94.2223872115 78.0563553144 88.9904204122
49234 21 94.3216330373 80.6753787606 85.8819962492
49235 22 93.6382305838 77.8709592478 86.7677254899
49236 22 91.9388913592 77.8748879233 88.5111220037
49237 22 91.9925832575 80.7619967009 85.7725545751
49238 22 93.1898003398 82.3419790228 87.0727590789
49239 23 93.1284381704 80.0669953007 87.9900112634
49240 24 9.597220753 55.0473190518 84.7974947371
49241 20 4.7243536004 82.1458258685 39.7191239706
49242 20 3.4387731234 84.5168750601 40.2986971437
49243 21 5.9478553925 81.57102323 40.4699686866
49244 21 3.4925753987 84.9241477514 41.7659638952
49245 22 5.0411264459 81.9582783843 38.3281857712
49246 22 3.6399372097 81.3313740257 40.2381768333
49247 22 3.4098898755 85.770028998 39.5839588261
49248 22 95.8014341345 83.6986816216 40.2016027354
49249 23 4.738637142 83.6723033719 40.0786913168
49250 24 93.9963948316 82.9774890515 40.0946866384
49251 20 55.7280088485 79.6899359946 86.3595173997
49252 20 56.5918497545 77.1324617976 86.2387573986
49253 21 56.195147071 80.6323504101 87.5495319103
49254 21 56.4700608146 76.5988167117 87.7505491389
49255 22 54.4931887295 79.184727036 86.7920458619
49256 22 55.6134224804 80.5126193479 85.2491053374
49257 22 55.4186724245 76.7277146833 85.5391725437
49258 22 57.7493123825 76.5194013431 85.6330865956
49259 23 56.8551645515 78.6369574263 86.2309935876
49260 24 58.1554625952 74.9915207413 84.1822828651
49261 20 30.0244624466 80.2707251863 64.9646990595
49262 20 30.8009370931 80.9643234881 62.2533517396
49263 21 31.2028780106 80.6964252364 65.7830795778
49264 21 32.0720506904 81.889900723 62.0999463161
49265 22 30.2258538349 78.9397460579 64.6205657955
49266 22 28.8530623746 80.4806287047 65.7607235435
49267 22 31.2850060361 79.6299769236 62.115661018
49268 22 29.9245618416 81.3886204399 61.2005602511
49269 23 30.1222116341 81.2185649156 63.6784319997
49270 24 31.1778093194 70.5812083564 60.2367252002
49271 20 92.0746177431 31.678715443 80.5449841507
49272 20 91.9523611037 29.2280638031 79.0807106757
49273 21 93.1271286119 31.6686131346 81.782142767
49274 21 92.0010953877 27.7789437906 79.5496261561
49275 22 90.9661700186 32.4867130332 80.9836862458
49276 22 92.7858950846 32.3027200649 79.4718009656
49277 22 90.8399847038 29.4122438511 78.2395999636
49278 22 93.1901744993 29.4770669965 78.3893573312
49279 23 91.6122500551 30.1528927188 80.3530402915
49280 24 93.6517938681 33.7445439658 78.5034759999
49281 20 4.3765348647 53.6879037962 17.2890996417
49282 20 95.3545940687 52.8675589402 18.2971790617
49283 21 4.185086767 54.0451326451 15.788906848
49284 21 94.4178855866 53.0364919858 17.1005232187
49285 22 4.8235713643 52.3690848538 17.2978923916
49286 22 5.3100536365 54.6568835411 17.7610083987
49287 22 95.7534481697 51.4759659615 18.3218735932
49288 22 94.6005689964 53.2032736138 19.4762494049
49289 23 96.5321677736 53.8486053312 18.0310580679
49290 24 94.2288414641 54.0079973078 21.1844749191
49291 20 29.0992593713 29.9469178759 40.1623159806
49292 20 28.1375757379 32.0693380335 38.6592234503
49293 21 30.6310686486 29.9307354745 39.6920909417
49294 21 26.6743312017 32.3732491438 38.7840056667
49295 22 28.7990898567 28.5734716363 40.3210531779
49296 22 29.0583824383 30.7598730804 41.3832921956
49297 22 28.7911389659 32.8507702943 39.6733829632
49298 22 28.595453511 32.2543599406 37.2963472186
49299 23 28.3314839348 30.5482858438 38.875861841
49300 24 29.4822116906 27.0124779126 39.4442102269
49301 20 49.1841450588 28.3036090469 74.8377411582
49302 20 51.2321074621 26.5714373201 74.0099131108
49303 21 50.0141245237 29.5867892903 74.6959346814
49304 21 50.5062378974 25.2260530483 73.5657857019
49305 22 48.5479802509 28.5744070353 76.0777995112
49306 22 48.2965450202 28.2390665211 73.6974898703
49307 22 51.3431393144 27.4203118433 72.853947121
49308 22 52.5011631818 26.1450824908 74.5454289946
49309 23 50.2179479492 27.2444568457 75.0816931975
49310 24 52.0379536348 28.1839715245 71.3937894013
49311 20 69.1752102343 17.8333147355 88.59259525
49312 20 69.8493522386 15.1496552236 88.3203941632
49313 21 69.6079257764 17.9469657047 90.1116831019
49314 21 70.1004133096 14.9339522319 86.850227675
49315 22 68.0544152441 18.6671293359 88.4534078901
49316 22 70.339968974 18.3019495962 87.893010395
49317 22 71.1946429705 15.433548797 88.841130744
49318 22 69.3429272613 13.8971560649 88.8084853215
49319 23 68.7583029341 16.2711049931 88.3485496708
49320 24 66.8304457525 19.8493800355 87.5580440405
49321 20 83.3045045152 70.0823601104 82.5406577542
49322 20 85.7347644586 70.5253650406 81.1109940393
49323 21 82.7115551375 71.4997700993 82.7256796613
49324 21 85.6315899573 69.1843771438 80.3551917091
49325 22 83.0796346139 69.3966191595 83.7558344958
49326 22 82.7073458424 69.4818340015 81.3659837859
49327 22 85.1872754686 71.4438332437 80.1497781054
49328 22 87.1521744475 70.6556661107 81.4491407502
49329 23 84.8076905854 70.3583963328 82.3778048016
49330 24 81.0594535586 85.9103388365 41.6660632902
49331 20 78.9387171191 42.7968670489 5.8154870908
49332 20 80.8826631621 43.2205092214 7.8010864479
49333 21 77.51270146 43.29992459 6.2860114574
49334 21 80.8158756789 44.7149960816 7.3112554476
49335 22 78.7199273108 41.6094716553 5.0992334271
49336 22 79.515764715 43.9020408771 5.1272018549
49337 22 80.7844462751 43.3459462171 9.2326303146
49338 22 82.139278076 42.8027600621 7.3084960208
49339 23 79.5527129725 42.5374809274 7.2167988643
49340 24 37.1198374417 30.6825155894 61.4894114387
49341 20 73.0945317242 49.9423794263 32.841416305
49342 20 74.8053763555 48.2337797524 34.3631232739
49343 21 73.7419213192 50.3065302272 31.5923781224
49344 21 76.0209272567 47.9668168996 33.5931964199
49345 22 73.3694454678 51.0259455394 33.7427667078
49346 22 71.719963006 49.8060918031 32.5160845594
49347 22 75.1372558936 49.2319439438 35.3070343278
49348 22 74.5402843005 46.9223504616 34.9136055405
49349 23 73.6656863069 48.5719264633 33.2882563708
49350 24 75.9793020046 54.9821217469 34.5988438027
49351 20 73.7431373378 95.5883502597 21.6499294235
49352 20 72.1069375407 4.1864618034 22.4103152085
49353 21 75.1092874657 96.3295603667 21.3880177249
49354 21 70.7586535322 3.5309941033 22.9311453292
49355 22 73.7407988405 94.5094611412 20.7378219331
49356 22 73.8678260143 95.1322497445 23.019914687
49357 22 72.8994075087 4.4125570772 23.5885436927
49358 22 71.7808574759 5.3649896152 21.7562842811
49359 23 72.6889427509 96.6993235612 21.3546239833
49360 24 67.1235997752 89.5608266758 24.0308938437
49361 20 38.2694427188 82.1650015464 91.7024225114
49362 20 36.738943 80.0004884372 92.7701803827
49363 21 39.2791123169 81.1562673472 91.201329308
49364 21 37.7968791826 78.9444230525 93.135734282
49365 22 39.0307639027 83.3318181637 92.0936063412
49366 22 37.449752642 82.452169016 90.5836853987
49367 22 35.8273032091 79.851198769 93.8236266504
49368 22 36.2329857222 79.5586059857 91.5100109528
49369 23 37.5675193665 81.3677610439 92.8652169133
49370 24 35.6752073441 78.4332275407 90.056868725
49371 20 3.4030726881 30.1044390546 73.2321289059
49372 20 96.086917886 30.7240473016 75.9225232899
49373 21 95.8749564899 29.8895779218 72.0508136052
49374 21 95.0417966686 31.9103202165 76.0490827643
49375 22 4.2250095931 28.9574528945 73.1799336459
49376 22 3.9966459768 31.3347692588 72.8990333492
49377 22 95.652331546 29.7442169291 76.8377175968
49378 22 3.7052860493 31.4079174546 76.2291470571
49379 23 95.9260292711 30.1487769636 74.4386064375
49380 24 95.0026034537 29.8148395478 78.6318127322
49381 20 26.5808848493 41.9918627353 79.257688152
49382 20 26.5143779858 42.1140258347 82.0781029864
49383 21 28.0261697261 41.6406204394 78.9432070339
49384 21 28.10970085 42.6060456685 82.1791260702
49385 22 26.4025978144 43.4565103698 79.2683516997
49386 22 25.9446265014 41.2390536815 78.1894625813
49387 22 25.7107767705 43.2798135132 82.2817393321
49388 22 26.3843575354 41.2887233644 83.1932855832
49389 23 26.338710068 41.398539198 80.6613477768
49390 24 25.4677601302 47.6686117228 75.8966127397
49391 20 25.2396163327 26.376032485 40.5924124057
49392 20 26.6624516354 26.5227030362 38.1674842361
49393 21 24.1481928687 27.4505252285 40.3063674148
49394 21 26.6854624489 28.0387976116 38.5637192202
49395 22 26.2568626621 26.9770262934 41.3587847438
49396 22 24.6019548865 25.3205283396 41.2918101808
49397 22 28.0118581226 26.1275905309 38.2212696742
49398 22 26.110098571 26.4571315717 36.8605448601
49399 23 25.7013292414 25.7841120462 39.1644324089
49400 24 29.0872862651 24.9245739753 36.9739152096
49401 20 3.2399011386 53.136205511 22.6832646144
49402 20 5.1664979637 52.3322301362 20.8060125146
49403 21 3.650100319 52.3346621734 24.0182659582
49404 21 6.2086352584 51.9677051757 21.8785409204
49405 22 95.3818141773 53.191861747 22.7365823531
49406 22 4.0084553883 54.3734576673 22.8162783414
49407 22 5.3676742102 51.3302308092 19.7985878739
49408 22 5.4571077012 53.6816366234 20.3871408767
49409 23 3.790354969 52.2549661851 21.5345011963
49410 24 4.1936830831 50.8357789382 18.2956824234
49411 20 5.8389375419 39.8376390142 25.5126592785
49412 20 5.9009638445 41.2031343629 27.9342200119
49413 21 4.3916228493 40.0199482644 25.134196874
49414 21 4.3974784466 41.3461568583 28.3803117586
49415 22 6.0510860177 38.4876712877 25.1070703053
49416 22 6.5477080142 40.8920206809 24.8539513565
49417 22 6.5747784591 40.8882790852 29.1489290541
49418 22 6.2622149088 42.398761267 27.2254682475
49419 23 5.8915350233 39.8501733598 27.0804814144
49420 24 7.7648303857 42.2292669821 26.0417209097
49421 20 31.2397327282 27.4333138884 36.6526992192
49422 20 32.5100980063 27.1982481389 39.1219652978
49423 21 30.1480286444 28.4369033935 37.0713837774
49424 21 33.0575869963 25.7087188929 39.1132660878
49425 22 30.5753188727 26.177914993 36.7366980426
49426 22 31.7441933677 27.7771665327 35.3427665666
49427 22 33.4783294321 27.9785579209 39.8116349241
49428 22 31.2371136112 27.1107883395 39.7975104004
49429 23 32.426941042 27.575307445 37.6320618923
49430 24 34.4663913151 29.4315130689 40.3047772367
49431 20 14.1851653935 9.1708191537 54.4876698758
49432 20 13.6744375812 11.8577338538 53.6534811158
49433 21 13.0300412628 8.4691296512 55.2589062884
49434 21 12.3830819512 12.3207843829 54.4427707275
49435 22 15.0879188947 9.6257130043 55.4635715728
49436 22 14.7123562269 8.0520446251 53.7067988544
49437 22 14.7596874124 12.1676408712 54.5498739043
49438 22 13.7093279611 12.5739407476 52.3867638934
49439 23 13.4375010339 10.2918292857 53.5523644921
49440 24 18.2424582246 15.9105087081 55.7003210404
49441 20 39.5636606695 29.125544081 75.3890652838
49442 20 40.211517964 27.2765410288 73.2948941736
49443 21 40.4329268892 30.3920742236 75.4310646955
49444 21 40.4049584614 28.202679503 72.0959933733
49445 22 39.27639966 28.7725245273 76.7470774411
49446 22 38.4432398388 29.5712616681 74.6486034959
49447 22 41.1389659967 26.2276782157 73.1462592847
49448 22 38.8178671077 26.924363334 73.2777763733
49449 23 40.5568672466 28.0726590526 74.6333564934
49450 24 36.5400771888 29.328057948 74.8017282997
49451 20 10.0157088775 47.9685006177 53.5384270482
49452 20 12.3751404144 46.4889801402 53.3047643971
49453 21 8.8798259026 46.9046714219 53.5709789307
49454 21 13.3236629849 47.3198950041 54.05822823
49455 22 9.4343397385 49.1104356236 52.8495057409
49456 22 10.2209728173 48.2626835792 54.8832500806
49457 22 11.9564277942 45.4599477844 54.2428759775
49458 22 13.0192841751 45.9672146207 52.1997776486
49459 23 11.2340285595 47.4596436033 52.8230339514
49460 24 10.4571423375 53.9491607155 57.8815777903
49461 20 53.1932648454 82.4806051433 20.8551209581
49462 20 53.4138319116 80.4903568535 18.8056619165
49463 21 53.8494471903 83.7346009402 20.3714261747
49464 21 52.5777723536 79.301184202 19.3694268478
49465 22 54.2280031347 81.8144140299 21.5379621724
49466 22 52.0870620783 82.9447500892 21.5444164249
49467 22 53.1317155962 80.4723036543 17.4077082252
49468 22 54.7514523723 80.1420142944 19.1049895721
49469 23 52.7928205662 81.8076791576 19.4440716819
49470 24 56.0936562878 78.9575186374 18.4334666848
49471 20 23.6210020353 46.583081272 79.6641189843
49472 20 24.0751382127 49.1061327886 78.4190094771
49473 21 22.0905958564 46.5233092807 79.4805001756
49474 21 22.7725016717 50.0134697445 78.3754198873
49475 22 23.8352083888 45.9987375644 80.940096656
49476 22 24.2184413278 45.8049229074 78.6647387743
49477 22 25.1905078892 49.9565974899 78.5606288741
49478 22 24.0217269342 48.3782053462 77.2107546875
49479 23 23.9043343693 48.135095166 79.6512104792
49480 24 26.8711391353 50.3955802048 77.9795590628
49481 20 79.2312163625 74.0754845754 75.4148822941
49482 20 78.4766300508 74.0613600516 78.0909650746
49483 21 78.4020787566 72.7454408459 75.0566245063
49484 21 77.8093164587 72.6729474293 78.0424178705
49485 22 80.4025228946 73.9865281377 74.5921989408
49486 22 78.3892637913 75.1564315715 75.0967531202
49487 22 79.0013888469 74.1610735769 79.4187638467
49488 22 77.4015760679 74.9162211279 77.8244699213
49489 23 79.4690883087 73.9374196943 76.9473463506
49490 24 38.4581126817 16.6753844079 71.2221436988
49491 20 59.3347200182 77.2444290487 20.858675474
49492 20 56.8287863018 78.3305207389 21.6352436604
49493 21 58.9151936009 75.8046630255 21.115910178
49494 21 56.229008512 77.0644582958 22.2550389872
49495 22 60.7107853747 77.2058906131 21.2414407136
49496 22 59.0697215031 77.492777463 19.4629667401
49497 22 56.3039339658 79.4665627316 22.2860006916
49498 22 56.4386314108 78.2402547428 20.2410315648
49499 23 58.4117619002 78.154946361 21.8229782244
49500 24 64.6863243398 82.0948466272 18.2896958703
49501 20 34.9127636815 11.9284967824 27.7312384455
49502 20 36.406969922 11.6734228499 25.3460647302
49503 21 34.15799029 13.1625872902 27.1450239401
49504 21 36.5146343381 13.1579102956 24.8241121309
49505 22 34.9681392977 12.4068597919 29.0687653664
49506 22 34.0890513893 10.7334685335 27.6648251219
49507 22 37.7175573539 11.1783442616 25.0171784687
49508 22 35.315546458 11.1627230996 24.6095316178
49509 23 36.2333598818 11.7576742309 26.9326883844
49510 24 35.0158446428 10.3097889451 22.8354540193
49511 20 40.5839002755 54.4585789693 31.0606038343
49512 20 42.3562941559 56.7317854335 31.6312907176
49513 21 41.6237832588 53.4668690305 30.6096480132
49514 21 43.6121607507 56.1158252423 31.1987622553
49515 22 39.461515107 54.1602802526 30.153641038
49516 22 40.2917751916 54.1039692374 32.408700763
49517 22 42.5045548853 58.05565553 31.1815509151
49518 22 42.3634967276 56.5551821167 33.0073560741
49519 23 41.25776166 55.9294002368 30.868847055
49520 24 41.3196850688 61.5392682013 36.8801882375
49521 20 7.75581314 22.1301632309 60.97550327
49522 20 8.8971027207 22.5423935365 63.5324162277
49523 21 8.9312634894 22.8647320056 60.2277453705
49524 21 8.2563076881 21.5423585473 64.5331059962
49525 22 6.5651625582 22.4897305771 60.2437406921
49526 22 8.1046046907 20.7277196247 60.9751291105
49527 22 10.0877533026 21.839815405 63.0694873004
49528 22 9.1834751012 23.7796456928 64.2632434067
49529 23 7.8256967936 22.8007507192 62.4435183407
49530 24 15.5888250183 21.8066087432 68.9513692719
49531 20 9.8206875559 16.7021368171 61.1692243871
49532 20 9.7178497982 18.1781027787 63.5396187994
49533 21 9.1214394445 15.3266327 61.2716505692
49534 21 9.3019807908 17.4637386207 64.8880898877
49535 22 11.0061840897 16.524972261 60.407248424
49536 22 8.9097586681 17.6387517593 60.563647124
49537 22 10.7618672448 19.0553198892 63.8629862073
49538 22 8.5254032504 18.8349399028 63.0475054257
49539 23 10.2238912619 17.0465507008 62.6085227109
49540 24 4.2950616185 19.9703271163 57.616859895
49541 20 90.9122910406 78.1822600095 73.9743679517
49542 20 89.3365180139 79.7917073975 75.621792536
49543 21 90.1795930637 77.0739993649 73.0985539396
49544 21 90.0157111723 81.1536482303 75.7629442335
49545 22 91.3750328881 77.4644348756 75.1286502235
49546 22 91.9061523969 78.6374251258 73.042523544
49547 22 87.901709605 80.1194711803 75.5318071595
49548 22 89.6075030821 79.1249550447 76.8276152884
49549 23 89.810952348 79.2308422029 74.260880642
49550 24 86.3656910326 81.2317540404 75.5463058428
49551 20 27.9314138152 46.1921780618 80.5114968692
49552 20 27.7667836046 47.508564967 77.9304506193
49553 21 28.6850647279 44.8273374924 80.4029905941
49554 21 29.1945765216 47.2067117343 77.3883869431
49555 22 26.9118289884 45.9208188341 81.4193015246
49556 22 28.9341614613 47.0911899673 80.9653524269
49557 22 26.9092098715 47.3350484666 76.847071586
49558 22 27.833384008 48.8998773259 78.3153672764
49559 23 27.3587625941 46.4833677467 79.05087145
49560 24 25.8865382283 44.81199695 72.9566539229
49561 20 33.0199839596 71.0178525739 62.720489962
49562 20 34.1909163321 70.0074346566 65.0443950478
49563 21 33.9321849898 71.9361336972 61.8599229523
49564 21 33.8588497142 68.5389518865 65.4207060348
49565 22 32.2810188099 71.9134035034 63.5633779321
49566 22 32.20272592 70.3056398335 61.8148367242
49567 22 35.6217025257 70.0987295916 65.3021909911
49568 22 33.3556986332 70.800559404 65.8665171618
49569 23 33.9880283056 70.0950815358 63.490416816
49570 24 32.9545060349 75.3082468168 62.7798877937
49571 20 66.7572975567 11.2150306074 89.0819024269
49572 20 67.0805714247 12.5650357499 86.626012553
49573 21 65.2019162265 11.2593217464 88.7858486676
49574 21 65.851550779 11.9741068339 85.8788158928
49575 22 66.9927374658 12.3149194317 89.9567810401
49576 22 66.896110757 9.8498907103 89.4909523762
49577 22 66.7340996634 13.881441363 87.0666789859
49578 22 68.1199867086 12.6497080604 85.6537589118
49579 23 67.4174085771 11.4593568062 87.6605637625
49580 24 68.5113576182 12.1406546122 5.1128341274
49581 20 73.0944381843 49.283952124 43.8051335487
49582 20 73.6061013955 47.2414150344 45.6317805667
49583 21 73.0841487961 50.7804968618 44.2460806012
49584 21 74.857010376 46.583923131 45.1449989668
49585 22 71.7735613643 48.8055891144 43.5677293018
49586 22 73.905522591 49.2716983981 42.6749845692
49587 22 73.7027281043 47.3267234162 47.0681791537
49588 22 72.6046633079 46.3658816419 45.1218010735
49589 23 73.8025351695 48.5696815059 44.9753176021
49590 24 71.1973556274 45.373423384 44.3291440257
49591 20 78.3440840233 64.2596888908 62.7617410545
49592 20 76.2844291335 66.0181453273 63.5345676452
49593 21 78.0902167555 63.4201683569 63.9944097561
49594 21 76.2802198383 66.4336495291 65.0660027629
49595 22 79.767761185 64.2258274498 62.4701772101
49596 22 77.5798631027 63.6811446565 61.7338311774
49597 22 75.7511582071 67.2063825799 62.8909196459
49598 22 75.3846689088 64.8964149381 63.5720771421
49599 23 77.8485096736 65.7140471372 63.1866927855
49600 24 77.0007576291 63.4044536549 59.92402134
49601 20 3.7898161793 74.4502989241 95.9177977606
49602 20 4.4372141929 76.3300766009 4.3513539257
49603 21 4.7176467902 73.2312870468 96.3216094759
49604 21 3.8966976665 77.7603015551 4.1775848676
49605 22 3.728128491 74.5191442848 94.4805573145
49606 22 96.0811184126 74.2277675201 96.5415217628
49607 22 3.4884325169 75.6465806075 5.2359793957
49608 22 5.7033234059 76.50471558 5.0427166241
49609 23 4.5420911202 75.6822193064 96.5047605851
49610 24 6.0118553869 90.146386402 19.5964481665
49611 20 4.4976035474 87.8098534307 20.9689590071
49612 20 4.8188382457 90.1249657666 22.4801895081
49613 21 96.4385343413 87.7030308736 20.7929169297
49614 21 3.4986498793 90.7645915506 22.9355417041
49615 22 4.8910978126 86.4748520869 21.0691402319
49616 22 4.870734178 88.5138346606 19.7833408715
49617 22 5.7325639763 90.4096076591 23.5468249007
49618 22 5.1163138114 90.7740390797 21.2524784209
49619 23 4.5357304075 88.5922210904 22.3092921248
49620 24 31.6651521586 29.3430243308 45.7009065471
49621 20 45.7655426127 20.2720868091 75.9110178832
49622 20 43.7844612324 21.117687436 77.6749931733
49623 21 46.4520318828 19.1463342045 76.7718655125
49624 21 43.8343179951 20.0329988442 78.8592082106
49625 22 46.5772817986 21.4740744259 76.1167121065
49626 22 45.7949141389 19.7762318397 74.54945121
49627 22 44.6092024634 22.2351149901 78.2084511794
49628 22 42.3996031261 21.440119445 77.5547008717
49629 23 44.3340081001 20.4127708072 76.4407342936
49630 24 39.9828129272 27.5058073049 77.8093164587
49631 20 45.5663961819 84.4441945637 75.8577001445
49632 20 47.6702954409 85.2850246561 77.4161682911
49633 21 44.9051626828 85.3835221628 74.7646865023
49634 21 48.6371237683 85.0116075507 76.2790038197
49635 22 44.4437303938 83.8498420876 76.4527073998
49636 22 46.4103130908 83.5290937967 75.1828098211
49637 22 48.0488513852 86.4804644805 78.0846043619
49638 22 47.8825374566 84.2060419977 78.32958534
49639 23 46.2828182175 85.4386171594 76.7598924063
49640 24 43.5530435387 82.3728471873 76.4900298169
49641 20 58.7661845524 78.6082406794 27.4913086216
49642 20 58.7553339249 81.29292913 28.2212939416
49643 21 58.2871667636 78.4966475878 25.9965411417
49644 21 58.2337554851 82.1069132733 26.9280113898
49645 22 58.3469387548 77.4401145036 28.0991308422
49646 22 60.1977190651 78.6448147773 27.4453805345
49647 22 58.3210282046 82.1317013448 29.3086951903
49648 22 60.1095109466 81.3836628256 28.0225216703
49649 23 58.0925102476 79.8856214494 28.0657371006
49650 24 61.3556493926 79.9932858655 28.1985637478
49651 20 74.6417750837 25.9955122029 54.5725105582
49652 20 74.6167999325 25.6572719521 51.7160828652
49653 21 75.4250781423 27.3169502623 54.9071027532
49654 21 74.4348648418 24.0857082206 51.6725868153
49655 22 75.7112166731 25.0475789337 54.6900902029
49656 22 73.6528713417 25.8150737505 55.545138359
49657 22 73.8739061073 25.9944832641 50.5936041569
49658 22 76.0302812459 25.752963262 51.7026131207
49659 23 74.0188929405 26.1201073395 53.137982769
49660 24 77.4170101501 24.8569446331 53.8778833175
49661 20 41.5481094859 29.9354124691 58.5502009409
49662 20 40.1321025954 30.6012294229 60.7360411456
49663 21 40.9217663667 28.6914254406 57.9020630268
49664 21 40.0022692248 28.9941205323 60.9348134169
49665 22 42.5728390067 29.3007442994 59.3397711723
49666 22 42.0432161362 30.7205863256 57.4576549982
49667 22 41.287320266 30.8381659703 61.5328139487
49668 22 38.9468586193 31.218125013 61.1778300572
49669 23 40.3205854785 30.6158216461 59.2518436735
49670 24 41.9292845473 29.8594580765 63.0157018623
49671 20 45.1797022669 84.7647557748 67.1555904184