ITEM: TIMESTEP
13500000
ITEM: NUMBER OF ATOMS
4000
ITEM: BOX BOUNDS pp pp pp
3.23005382 96.76994618
3.23005382 96.76994618
3.23005382 96.76994618
ITEM: ATOMS id type x y z
49081 20 15.5418679923 46.743782807 18.4681699849
49082 20 15.5654400452 49.2500906829 17.2793714929
49083 21 14.5041364265 46.7657646817 19.6854046042
49084 21 16.2259252251 48.8966034297 15.8813242617
49085 22 16.5766998215 45.7767673998 18.7249369894
49086 22 14.7280709288 46.4607310928 17.3514907499
49087 22 14.1380212878 49.3649576707 16.9879947282
49088 22 16.1673692525 50.5178368441 17.5393188538
49089 23 16.0746712192 48.1518388067 18.297740301
49090 24 8.9386531409 47.6007017609 22.277769181
49091 20 34.7841463295 53.5000756923 65.3279144615
49092 20 36.4899398065 51.6981232059 66.6077272688
49093 21 33.2571075867 53.3014905008 65.6895396854
49094 21 37.7712492521 52.6331479699 66.4457161752
49095 22 34.6772302325 53.9529958511 63.95624548
49096 22 35.190390082 54.550060984 66.2042897131
49097 22 36.033278052 51.8915637033 67.9379580781
49098 22 37.063058727 50.4344928 66.3604077934
49099 23 35.5052453597 52.1418764552 65.5076981347
49100 24 36.8690569903 51.4409820418 69.4889430333
49101 20 11.6411141711 20.8620429102 80.5295500684
49102 20 11.1352223712 19.9363721354 83.1475445758
49103 21 13.1785826118 20.4060359349 80.4519119578
49104 21 12.4359132825 19.7364773854 83.9424465811
49105 22 11.5979922807 22.1155710077 79.7689772036
49106 22 11.026790928 19.8304849772 79.8090122776
49107 22 10.2562092947 20.3233466701 84.2048259791
49108 22 10.8829172195 18.6847148357 82.5450541291
49109 23 11.3591755815 21.1287251433 82.0836218401
49110 24 10.7923144798 27.7165526824 84.2391551196
49111 20 88.4645391373 72.8628334108 89.2308179355
49112 20 85.7121278046 72.7152274607 88.5121509425
49113 21 88.4724900282 71.3059554424 89.4772955519
49114 21 85.6457144811 71.190714295 88.4655680761
49115 22 88.3433114368 73.3652361727 90.58256292
49116 22 89.684018714 73.1018278358 88.5678071785
49117 22 85.2615461431 73.0691824134 89.7994469412
49118 22 84.7544663866 73.1253998887 87.5174477272
49119 23 87.2541329302 73.026902382 88.1848548592
49120 24 87.9220077616 72.5583610612 92.1054859075
49121 20 33.2562657277 57.7147961623 64.7859443252
49122 20 36.0143829938 58.1592977308 64.4661314332
49123 21 32.2309749675 58.8948954443 65.1938717958
49124 21 36.6476480651 59.5826942728 64.5871720539
49125 22 33.4952601526 57.0790990538 66.0237577208
49126 22 32.4301213983 56.9260677899 63.9173328848
49127 22 36.1136288196 57.6388417697 65.8317203218
49128 22 36.8423045811 57.4811335111 63.5330710069
49129 23 34.4517990919 58.380706656 64.0374381065
49130 24 37.5657421086 49.1055715492 64.9973444819
49131 20 76.3692698158 48.9838761493 39.4722721947
49132 20 78.8427451895 50.2489096536 39.3884604511
49133 21 75.4029091879 49.9529494341 40.1898167089
49134 21 79.7838500465 49.1177317352 38.8257244587
49135 22 75.9949231666 47.7080855574 39.8810415243
49136 22 76.2695562906 49.2301666859 38.0922781627
49137 22 78.4157355809 51.0823500945 38.2975046865
49138 22 79.6711344762 50.9309090087 40.2894366943
49139 23 77.758617837 49.3269804745 40.1191005503
49140 24 74.54945121 51.1477344792 34.3530209656
49141 20 42.7085653905 37.3318923777 7.0087848517
49142 20 44.701619877 37.3439590238 4.9079911171
49143 21 41.2077178176 36.8889809873 6.5354917043
49144 21 44.1997783545 36.1648886806 4.0263355387
49145 22 42.4106408334 38.4261220385 7.8980031304
49146 22 43.3277994779 36.196692244 7.6392904961
49147 22 45.2982173105 38.2581243918 3.9997889172
49148 22 45.6793923719 36.719860862 5.7058022131
49149 23 43.4009476738 37.8497292218 5.6624745349
49150 24 47.4282141994 36.8835556736 6.6142335857
49151 20 56.0252786265 17.6991785298 35.6151547332
49152 20 57.5202331862 17.7626921167 38.0921846228
49153 21 55.0895055433 16.674449009 36.0223338846
49154 21 57.4689733251 16.3273224685 38.8636081151
49155 22 56.307207862 17.3541098669 34.2771601129
49156 22 55.4819989316 18.9654280527 35.841240653
49157 22 58.8010749322 18.2848317959 38.4366920463
49158 22 56.4303063604 18.4302863285 38.7095479123
49159 23 57.3078040906 17.4215521293 36.5740321698
49160 24 57.461303054 16.6148640976 32.949174261
49161 20 26.6913554622 54.9384386171 42.9551365468
49162 20 27.7391893364 52.3360652718 43.0048997695
49163 21 26.4974472653 54.8932588491 41.4729969523
49164 21 28.0828549009 52.1444020323 41.4889922739
49165 22 27.1439950013 56.2700725248 43.1517574005
49166 22 25.463550835 54.6041270418 43.6091674742
49167 22 28.7584000035 51.6727738951 43.7841806128
49168 22 26.3889409902 51.9472199392 43.0530728141
49169 23 27.8764123585 53.9431741624 43.2508161465
49170 24 76.0131634456 58.860379224 29.5210307459
49171 20 94.097698535 82.933618842 37.6770545805
49172 20 92.4792713174 84.7256560998 36.267034243
49173 21 93.8196979749 83.5565009852 39.0710795963
49174 21 92.2640360251 84.4042530297 34.7005216657
49175 22 95.2433751366 83.6216982902 37.241252222
49176 22 94.3246263139 81.5413710841 37.8269990279
49177 22 91.1936590368 85.2575239278 36.633804161
49178 22 93.5179382822 85.6668544967 36.1797615235
49179 23 92.8597915995 83.2698012151 36.8303314748
49180 24 95.2770494979 86.0490584969 36.8539035277
49181 20 10.2510926626 16.1191026681 72.4723979001
49182 20 8.6310659128 17.7282694363 71.0194427521
49183 21 9.3204642735 14.9396581653 72.990421824
49184 21 7.9352132996 16.344253189 70.7093580089
49185 22 11.1726102662 16.3791435688 73.4890829902
49186 22 10.9073779014 15.5406519737 71.2843477272
49187 22 7.5398762985 18.5620840368 71.2257917546
49188 22 9.4813341804 18.0185237223 69.8852715572
49189 23 9.3607799671 17.3713212071 72.2966364424
49190 24 5.6912193438 16.3380795561 77.5525494542
49191 20 76.6266915996 70.9861425504 13.0060015104
49192 20 77.1575304887 71.7899308455 10.3329587764
49193 21 77.7790095336 70.1559760057 13.5974542498
49194 21 76.3904098315 73.1572034521 10.4909850706
49195 22 75.4523917909 70.4314509887 13.6015700051
49196 22 76.8695211602 72.351731439 13.4385299727
49197 22 78.5664283475 72.1441664178 10.4964665082
49198 22 76.9196585425 71.3770457606 8.9834868113
49199 23 76.6367003681 70.8065459571 11.4075450598
49200 24 84.5446564081 72.7083990485 7.0334045513
49201 20 55.4529080251 58.2276753921 86.6938289749
49202 20 53.1112303598 56.8424431261 87.0484387069
49203 21 55.6931184687 57.9392919039 85.2187048724
49204 21 52.5467171094 56.8368307326 88.5571436308
49205 22 56.7922122039 58.3196251063 87.1489940912
49206 22 54.8580878496 59.4872835826 86.8816570788
49207 22 52.3167025141 57.8930831971 86.5514612588
49208 22 52.7032093493 55.533820032 86.5224638921
49209 23 54.635275826 57.0374738017 87.2416921245
49210 24 55.7234253938 54.7941065632 86.6243288349
49211 20 47.4582405049 53.2609877274 86.2950684138
49212 20 48.7366502138 55.6487805597 86.6792367517
49213 21 46.3505410996 53.323098216 87.389017455
49214 21 48.1615669555 55.9975908183 87.9786929364
49215 22 48.5805321334 52.5808591701 86.7899879843
49216 22 46.7488339612 52.5924581167 85.2487311779
49217 22 49.9436889848 54.8885818545 86.9827737024
49218 22 49.0375680475 56.9465530263 86.0600026643
49219 23 47.5742299714 54.7651091966 86.050742215
49220 24 49.6150833429 51.0886172673 86.9983948645
49221 20 82.0529407554 85.7319582618 77.2004652993
49222 20 79.5737594483 85.3076613101 78.558103297
49223 21 83.1148991534 85.5624639769 78.3155543562
49224 21 80.1753144961 84.7163956505 79.8757997607
49225 22 82.5743321154 86.7565942427 76.292660644
49226 22 82.0104736443 84.413513479 76.6702811894
49227 22 78.5272351326 86.1740277931 79.0519003888
49228 22 79.0884744867 84.2568341593 77.7848090069
49229 23 80.6932448801 86.1787047877 77.8340109903
49230 24 78.3733620096 83.5632358574 76.2846162132
49231 20 91.3149802772 75.1079779072 96.6749096493
49232 20 93.7095079817 75.7275861542 95.226537956
49233 21 90.587801154 76.4390505755 3.6828533123
49234 21 94.2822527427 74.3119534233 94.9388092471
49235 22 92.09463528 74.5116610934 4.2053475077
49236 22 90.2476901054 74.2853880938 96.1448190793
49237 22 93.9128637077 76.4347477405 94.0513962883
49238 22 94.4665263306 76.0876211999 96.4254387564
49239 23 92.14683054 75.6286209481 95.4150208391
49240 24 20.1354250263 40.7244907337 94.6320919401
49241 20 4.1473293895 78.6432245991 36.5565402099
49242 20 5.3533626066 81.2312863409 36.8843039927
49243 21 4.5409312255 77.8515029502 37.8333597406
49244 21 5.8403219323 80.9227917759 38.4192000865
49245 22 4.1505181644 77.6810732663 35.4991652667
49246 22 96.4264676952 79.2401026522 36.9113370216
49247 22 6.4030953407 81.9740866261 36.3168910057
49248 22 4.1046471366 81.9068314435 36.9963647838
49249 23 5.2917665875 79.7748702169 36.3732020209
49250 24 96.6224337697 83.2411780081 36.0813575567
49251 20 62.0312880351 67.0544737947 81.5872991712
49252 20 61.303173513 64.4564968243 82.4106373038
49253 21 60.8735447874 67.6487327309 80.64984237
49254 21 62.6247986521 64.141360927 83.1945951417
49255 22 62.9822145808 66.5689082135 80.6754723005
49256 22 62.5036644915 68.1458972588 82.3925841046
49257 22 60.249072466 63.8836585235 83.2209733913
49258 22 61.4888501993 63.9166781055 81.1029496086
49259 23 61.2896102286 66.0090719577 82.4705028349
49260 24 61.4434833515 61.9782509161 80.4970917258
49261 20 40.7962358311 75.1491354599 68.2746081507
49262 20 41.9046835556 74.9087379365 65.7132052782
49263 21 41.7149846539 76.1954726958 69.0218983507
49264 21 43.2789716541 75.6286209481 65.8082418088
49265 22 41.4257593067 73.8981329395 68.5423193226
49266 22 39.4441166871 75.3038504418 68.741839913
49267 22 42.1394686854 73.5100359261 65.9484581075
49268 22 41.4838475799 75.2071301931 64.3661372883
49269 23 40.9630174592 75.5858732173 66.7540236605
49270 24 39.1962359723 66.4444066168 68.7039562566
49271 20 4.0025184113 26.0208615137 84.7020840469
49272 20 96.115541093 24.6326359712 82.5878953998
49273 21 4.0348252193 24.825702309 85.8039839789
49274 21 95.1482450661 23.524001167 83.0526951249
49275 22 3.7403906355 27.1905778677 85.5099880972
49276 22 5.2719361303 25.950238895 84.051981795
49277 22 95.4505659982 25.1572076876 81.4674745691
49278 22 3.7670476341 23.8730920452 82.2876323453
49279 23 96.2471517216 25.6160208596 83.8601314758
49280 24 7.0707082604 26.2912853425 83.8248669364
49281 20 11.1437157934 73.7202200642 15.7557937261
49282 20 9.9566010195 71.9663470824 13.8973431447
49283 21 10.3990166484 74.4026871188 16.9279421173
49284 21 9.608595204 72.6617226422 12.5065171932
49285 22 11.9041670564 74.6993956574 15.035536555
49286 22 12.0257689164 72.8339295841 16.4335837862
49287 22 11.144127369 71.2864991448 13.6106433746
49288 22 8.8627735802 71.0810855411 14.1034115276
49289 23 9.9869360066 73.0612315225 14.9391904658
49290 24 7.5357605433 70.2039619705 15.3050249849
49291 20 32.7263622374 20.1908006426 43.2280859527
49292 20 32.9384171734 22.0326946631 41.0341077774
49293 21 34.2119628079 19.8910988275 43.6051452588
49294 21 31.4352311032 22.2973190185 40.5655664566
49295 22 32.0034859493 19.0038729484 43.3220935445
49296 22 32.306181041 21.1917710307 44.1236368821
49297 22 33.4039652177 23.0496603728 41.9605268713
49298 22 33.7347222771 21.9642234619 39.8574694714
49299 23 32.9287825645 20.5802072145 41.705350045
49300 24 32.1812117448 16.9137240537 42.2880100345
49301 20 50.2391815047 25.851180149 66.5541289105
49302 20 51.1681261758 24.423387232 68.8818691319
49303 21 49.5077930864 24.9062401564 65.4233251518
49304 21 50.7461677213 25.188075852 70.175712923
49305 22 51.5565038089 26.2838021511 66.0928837013
49306 22 49.3411985381 26.9321271451 66.6281189654
49307 22 50.9946096754 23.0737001251 69.2958766955
49308 22 52.5011631818 24.9618963923 68.6657919805
49309 23 50.1397485992 24.9929516366 67.8691127173
49310 24 53.1320897558 25.8118933942 66.7910654578
49311 20 71.3752685026 16.4057088983 89.7994469412
49312 20 70.0861017061 13.9906024174 89.6137702549
49313 21 71.5201617959 16.5605174201 91.3748458083
49314 21 70.7959759492 13.4974601049 88.3512623277
49315 22 71.150772761 17.7249955401 89.2985408176
49316 22 72.5502230906 15.8172494354 89.1532733648
49317 22 70.8967184133 13.425247308 90.6717064374
49318 22 68.7652248861 13.4627568048 89.5288360326
49319 23 70.1138830541 15.5127770858 89.7139514796
49320 24 68.1232606048 15.7629962978 89.7697947953
49321 20 84.8503447763 74.5075453382 83.983323514
49322 20 85.7582429716 76.0917369552 81.8757761993
49323 21 84.538669855 73.1963031271 83.296834244
49324 21 85.5107364164 75.4936428834 80.5653758472
49325 22 83.8902513211 74.5009040058 85.066141308
49326 22 86.1870298381 74.2503106342 84.3304500546
49327 22 85.5581611418 77.4856684311 81.5854283734
49328 22 87.0927766159 75.8084981611 82.1027039781
49329 23 84.62987125 75.4865338516 82.7880707695
49330 24 80.4330168995 4.4778572761 42.7730143764
49331 20 75.8754727241 31.7797385268 11.436046665
49332 20 75.3641836724 34.403064808 12.2767458016
49333 21 77.2497608226 32.0030182498 10.7352551455
49334 21 74.6093167411 34.1820300423 13.5715436996
49335 22 75.2101234697 30.8831586585 10.5554434104
49336 22 76.1221374202 31.2691977943 12.7520407027
49337 22 76.7105033432 34.3739739015 12.7012485411
49338 22 74.8700124211 35.6515417513 11.769787647
49339 23 75.1614827257 33.1407439606 11.3103196957
49340 24 46.677743643 27.5088941214 47.6083720321
49341 20 76.8170452806 49.9123531208 32.3352719475
49342 20 78.7554724699 49.4494241935 34.400445691
49343 21 77.1236690477 51.3810229708 31.8739331984
49344 21 79.8802896756 50.5816310507 34.3944591379
49345 22 75.7590155581 50.0059865531 33.2239944648
49346 22 76.6579339236 49.1741362903 31.1308522935
49347 22 77.8149288522 49.757544599 35.4259235309
49348 22 79.5762850254 48.3082375068 34.5955699065
49349 23 78.1892755015 49.3706636042 32.918773796
49350 24 72.3283464659 53.6260739273 35.7609834254
49351 20 57.0777894953 85.6708767121 34.4062451643
49352 20 58.3865061293 86.5898126146 36.7256603353
49353 21 57.0669388678 86.9257143681 33.5339856681
49354 21 59.0294993494 85.1904558249 37.2170253899
49355 22 55.8435306156 85.015723306 34.1420885083
49356 22 58.2740711787 84.9926189526 33.9941083986
49357 22 59.4669854259 87.250859034 36.0442222194
49358 22 57.896637713 87.2654512572 37.8873322585
49359 23 57.0790990538 86.2009672821 35.9202818621
49360 24 61.6635827182 76.517717625 31.7436321283
49361 20 43.4003864344 84.3758169024 89.6311686748
49362 20 45.5178489778 82.5632008682 90.4776111608
49363 21 43.8881034332 85.0036566599 88.2775528925
49364 21 47.0400236461 82.9810435674 90.2047552948
49365 22 42.6807840425 85.4229024575 90.3117649316
49366 22 42.5681620121 83.3093685896 89.2565414059
49367 22 45.449845476 82.0351681759 91.8205633954
49368 22 45.2854023453 81.5737358868 89.4083566512
49369 23 44.6820700395 83.9247675414 90.4181197893
49370 24 45.3380653047 80.1443527917 88.1749396306
49371 20 8.5313991575 22.6392073251 78.1480244089
49372 20 8.075635386 23.8925483429 80.5107485501
49373 21 7.8325064978 23.2008208388 76.940050239
49374 21 8.3633173249 25.2578566117 79.8179921072
49375 22 8.7104064495 21.289707298 77.7761097969
49376 22 9.7694276949 23.3140976485 78.0571971735
49377 22 6.9430169533 24.0820601648 81.4065800992
49378 22 9.3274984734 23.7046266991 81.2140750007
49379 23 7.6016500434 22.9151500076 79.3996817086
49380 24 5.5030638504 23.2462812265 82.1022362787
49381 20 24.5013995022 41.6297698119 69.7911704255
49382 20 24.2642758751 39.1181301622 71.0776245651
49383 21 24.4456497264 42.4855662871 71.04731764
49384 21 24.8623699468 39.17219622 72.5369404258
49385 22 23.1576054086 41.5811290679 69.2411558584
49386 22 25.4203354048 42.2413336282 68.873076382
49387 22 22.8826916649 39.3597437041 71.2337426455
49388 22 24.469408859 37.7510446353 70.7591212316
49389 23 25.0067020008 40.2135758416 70.2329593371
49390 24 21.1417271883 41.8232103093 64.1649329798
49391 20 28.9069413526 16.7876322788 42.4241105779
49392 20 30.0454153825 18.202142531 40.4264726366
49393 21 27.9458189586 17.5835632228 43.255586681
49394 21 30.1091160492 19.5558518533 40.9925760652
49395 22 30.185725221 16.8746243787 43.0680391969
49396 22 28.3841468942 15.4406578288 42.597814158
49397 22 31.3688177796 17.6930048969 40.6852039789
49398 22 29.8032406012 18.4683570647 39.0168264588
49399 23 28.9045093154 17.387035909 40.9719972889
49400 24 32.0278063213 16.4883046232 39.3256016434
49401 20 10.0571096338 69.4524624753 16.8550745411
49402 20 12.8059196807 69.5996007259 16.2959866045
49403 21 10.3433417045 68.4383029623 17.9598742098
49404 21 13.4010204759 68.3011734801 16.6879187535
49405 22 8.7331740593 69.1870898006 16.3608097499
49406 22 10.2006091827 70.6852247167 17.5606459492
49407 22 13.5644346678 69.9867623404 15.1633120479
49408 22 13.0176004571 70.5230265433 17.3705728879
49409 23 11.2410534054 69.3541520484 15.9067671124
49410 24 12.9795297209 70.7001910995 13.676401919
49411 20 8.3774792647 50.6437415392 21.646936147
49412 20 10.1859795435 52.4372754353 22.8880234388
49413 21 6.9455799464 51.1427768649 22.0184765994
49414 21 9.3435966889 53.4125223531 23.8102332376
49415 22 8.3360598003 49.2204385371 21.4394646657
49416 22 8.6958703503 51.3813971304 20.4858254631
49417 22 11.3662378434 52.0961354479 23.58218298
49418 22 10.388063127 53.1660447367 21.6723789977
49419 23 9.3712283731 51.0586845017 22.8026215171
49420 24 10.5428342329 52.0922067724 20.2657260964
49421 20 34.6932255541 17.500873958 39.333833154
49422 20 35.5161895271 17.0921981683 41.9202111777
49423 21 33.6414630044 18.567135191 39.5170778031
49424 21 36.1051166894 15.6692693257 41.7086239412
49425 22 33.9730619228 16.2779334053 39.2808895749
49426 22 35.4019773185 17.8744722881 38.1461571407
49427 22 36.3462625319 17.7378105054 42.841953277
49428 22 34.1438657663 17.0079187253 42.2245899875
49429 23 35.7103783436 17.6953433942 40.5159903136
49430 24 37.2839064129 18.9734724834 43.7868932696
49431 20 16.807369196 13.0212485129 51.7503184658
49432 20 17.6313621078 13.2902692433 49.1408360887
49433 21 17.2833001684 11.4802629722 51.6498566214
49434 21 17.4545717113 14.5781264813 48.3383573521
49435 22 15.6031366218 13.0111462045 52.492276892
49436 22 17.858009267 13.746743918 52.3187603917
49437 22 19.0220196876 13.333952373 49.5343584158
49438 22 17.3483103936 12.3178191683 48.1870098063
49439 23 16.631888358 13.3347006922 50.2070037818
49440 24 15.8085502254 9.6904051938 57.2608470646
49441 20 42.1520965709 22.6581023834 71.5207230352
49442 20 43.1649465253 22.2481170352 68.9404251045
49443 21 42.893213138 23.8449365376 72.28999511
49444 21 43.7708979481 23.6687073804 68.7134037857
49445 22 41.7284543984 21.7441240951 72.5410561811
49446 22 41.0798487847 23.333647486 70.8762331769
49447 22 43.9682671209 21.2873688007 68.2877972755
49448 22 41.8894365531 22.2502684527 68.2886391345
49449 23 43.153908818 22.0827385055 70.490287581
49450 24 39.8901148938 24.2930861619 70.115753852
49451 20 94.8770729182 49.8913066451 63.5535562434
49452 20 95.6308173708 52.6824434932 63.3316796187
49453 21 95.6774937771 49.2137036648 64.7013842625
49454 21 3.5859225989 52.1486113275 63.3209225311
49455 22 95.5871342411 49.5531599342 62.3858042271
49456 22 93.6337406689 49.2584157334 63.6568242845
49457 22 95.2358919453 52.985045045 61.9724514428
49458 22 95.6643046523 53.7768602338 64.2347137395
49459 23 94.830302972 51.4899969454 63.9587710571
49460 24 89.5657842901 45.9561769134 68.5758066041
49461 20 56.8636766817 71.5723570558 13.1189041605
49462 20 57.33436942 73.4100417811 11.0245272626
49463 21 55.4054832997 70.9526552689 13.1667030455
49464 21 56.1035715164 73.46317244 10.0180380208
49465 22 56.7176609097 72.7369287157 13.9272759103
49466 22 57.7167605 70.5870078297 13.6564779219
49467 22 57.0880788834 74.4779867322 11.9029978077
49468 22 58.5643254647 73.5054524713 10.3588880346
49469 23 57.1636591165 71.9475455641 11.619412916
49470 24 59.3993560838 70.0899368417 14.1031309079
49471 20 21.1914904111 38.6423862696 67.6667859301
49472 20 19.6801663702 39.4149322406 65.5029276002
49473 21 21.932794058 37.401111898 67.030808202
49474 21 19.6941038142 38.1981653208 64.6307616438
49475 22 21.1146006195 38.3147160267 69.0811091026
49476 22 21.9905081716 39.8127574028 67.4636172839
49477 22 18.403814539 39.9015267607 65.4247282501
49478 22 20.6485848758 40.3439704516 65.0238162715
49479 23 19.8056969058 38.8083260387 66.982073918
49480 24 17.1537474175 41.3550431481 65.1064119964
49481 20 80.477822508 80.2479949924 74.9503631886
49482 20 77.8633825165 80.3889596102 75.8914680457
49483 21 80.0916898323 81.1398978661 73.7823305527
49484 21 76.9533329037 80.5483515868 74.6285859589
49485 22 81.4203304634 79.3674104457 74.3565719519
49486 22 81.1082813825 81.0676850692 75.9183139948
49487 22 77.1576240286 79.5601961639 76.768872236
49488 22 78.1325903267 81.7719469188 76.2851774526
49489 23 79.1658319777 79.5977992006 75.4499597537
49490 24 39.3796677012 16.4115083716 59.2651263382
49491 20 59.702425335 68.4526145658 18.5369218058
49492 20 58.2805254313 70.2458678423 16.983785433
49493 21 59.0631737106 67.1149941051 18.1525663881
49494 21 56.895573785 69.6617112145 16.6747296287
49495 22 60.007458924 68.2930355095 19.9252408882
49496 22 60.8359417506 68.5317493148 17.6959046336
49497 22 57.9863424698 71.6394251586 17.1842414224
49498 22 59.1400635022 69.9597293115 15.9051769342
49499 23 58.6782570536 69.5887500984 18.3268312075
49500 24 62.1958247058 72.6510590945 22.5394937999
49501 20 31.8325885659 96.3374177177 14.4667204695
49502 20 29.9978971172 4.4594205633 15.8180912944
49503 21 32.2138571672 96.3779204911 12.9253701232
49504 21 30.7899929257 4.583987638 17.2344723446
49505 22 30.9262805489 95.2154067088 14.7696961809
49506 22 33.0648831079 96.3590254328 15.1828618854
49507 22 29.3339509612 5.7052316197 15.6833003096
49508 22 29.0781193556 3.3576852615 15.8055569489
49509 23 31.1218724638 4.2232229811 14.7543556385
49510 24 27.7401247353 93.6861230086 20.0941739338
49511 20 37.7161542555 58.7837700522 41.024005469
49512 20 39.6541137454 57.6910370296 42.7370015178
49513 21 37.2634211765 57.735842638 39.9065779149
49514 21 39.6183815065 56.1571698747 42.4260749156
49515 22 37.7042746892 59.9927731609 40.2609070271
49516 22 36.6700040993 58.6273713521 41.9860632619
49517 22 40.9907052673 57.9875584884 43.0686939761
49518 22 38.7700682227 57.7477222044 43.8227190484
49519 23 39.1381476991 58.3541413265 41.3893722886
49520 24 37.0376158763 61.9678679881 48.3669805592
49521 20 12.5322967875 19.6426568734 66.4901476241
49522 20 11.8667510994 17.07330311 67.3286392192
49523 21 14.0992022324 19.5062757103 66.2591976299
49524 21 10.3553989966 16.7844519224 66.9801095803
49525 22 12.4205633861 20.9809321134 67.0148128804
49526 22 12.0972708101 19.4984183593 65.1240910361
49527 22 12.7614882318 16.4237620975 66.377244974
49528 22 11.9568393697 16.5502280319 68.6294985023
49529 23 11.957475441 18.627936121 67.5179639614
49530 24 14.2375477332 9.9701175339 70.4592323367
49531 20 11.4641928186 17.7098420775 61.3730478126
49532 20 10.4574697271 16.1350979897 63.4507559017
49533 21 10.1446723271 17.9156298407 60.543629587
49534 21 9.1031711036 15.4351389751 63.198478812
49535 22 12.5509486421 17.7140513727 60.4355910113
49536 22 11.5610814392 18.7849896003 62.2763625531
49537 22 11.2100729931 15.2724731023 64.2719426167
49538 22 10.0907559331 17.3499941116 64.1164793156
49539 23 11.1511147989 16.3131979447 62.0621561996
49540 24 8.3169776623 23.7589733766 66.0461137551
49541 20 96.4943776571 82.2328179684 83.6290879417
49542 20 5.033250387 83.0835632894 85.2380676302
49543 21 95.50117108 83.2884156537 84.0657321592
49544 21 4.3031528191 84.4170679949 85.6382312897
49545 22 95.7094844203 81.0625403751 83.4356474443
49546 22 3.4593818325 82.6617919148 82.3963257003
49547 22 5.8108194502 82.7165127518 86.3613881975
49548 22 5.8538384467 83.4513621462 84.1570270941
49549 23 3.9310735769 82.0875505156 84.8173251943
49550 24 6.2407100875 80.979196331 86.8468602388
49551 20 19.7175823271 42.1934412033 69.1301240062
49552 20 19.6794180511 43.2654083697 66.5720885698
49553 21 20.3731098928 43.1303367652 70.1324974927
49554 21 19.6198331396 44.741654951 66.9763679846
49555 22 20.1135366915 40.9118511381 69.698659472
49556 22 18.3487195424 42.4929559386 69.3109366181
49557 22 20.4742265164 43.1318334035 65.3963856628
49558 22 18.3430136089 42.8290447719 66.3435706128
49559 23 20.3788158262 42.5189600287 67.7944678832
49560 24 23.7823583497 42.7804975677 62.1389524512
49561 20 42.2029822723 65.4288440054 69.5611558302
49562 20 43.804852929 65.7530532723 71.8574666477
49563 21 42.5945402617 64.369878884 68.5889957289
49564 21 43.1011523188 65.8828866429 73.2763732749
49565 22 42.7995797058 66.5855583143 68.9936493032
49566 22 40.7166333827 65.3744973279 69.5194370382
49567 22 45.0371474709 65.1501886661 72.1831725529
49568 22 43.9650867646 67.0683176988 71.4172679143
49569 23 42.8612224949 64.9532871926 70.9001793893
49570 24 43.2513773859 67.8631261642 67.7124333976
49571 20 67.3639972985 9.2572687222 88.152864216
49572 20 67.7085047221 10.7506331038 85.8729228796
49573 21 65.9327434055 9.0731915681 88.6268308506
49574 21 69.1415358731 10.4376953939 85.3953081892
49575 22 67.9872536013 10.2136486437 89.0177340607
49576 22 68.001471665 7.9977260096 88.3523848064
49577 22 66.9615886816 10.9666073612 84.6741156191
49578 22 67.7834301759 11.9764359772 86.5698886176
49579 23 67.2469788932 9.5857527622 86.6528585021
49580 24 65.0790983479 9.5702532021 94.662585945
49581 20 72.8740581979 44.6332422157 38.556048949
49582 20 71.9483874231 42.6248471869 40.2157272591
49583 21 72.0337893448 45.6587200557 37.7343009946
49584 21 72.9765779199 42.9585975228 41.3927397247
49585 22 73.2957360327 43.6772645158 37.5824857493
49586 22 73.7786824969 45.49848622 39.2329036101
49587 22 70.8273118132 42.0888636036 40.912786537
49588 22 72.6591970652 41.5826257062 39.4916349524
49589 23 71.8181798929 44.0293486706 39.5049176171
49590 24 73.5878611165 40.1712958103 39.8831929418
49591 20 80.5731396583 76.9316316487 59.8999815877
49592 20 80.454343995 79.6551391546 60.5924574108
49593 21 80.835799676 76.8553966364 58.3503997308
49594 21 79.9539991107 79.4644113141 62.028762458
49595 22 79.1277612415 76.912268891 59.933562409
49596 22 81.2056564104 75.7551804225 60.4286690593
49597 22 81.2630899043 80.8187754156 60.5944217486
49598 22 79.2266329077 79.7826340279 59.9219634624
49599 23 81.2834816008 78.36438218 60.3285813745
49600 24 82.5711517591 72.3074870699 56.4860561362
49601 20 83.0716837231 72.3637045452 9.8282923491
49602 20 82.2759398588 74.4809800088 11.6423488976
49603 21 83.9276672781 71.4274637626 10.8177947465
49604 21 81.7822363069 75.8412371235 10.9877286689
49605 22 83.8400203989 72.3843768614 8.6096639855
49606 22 81.7961737509 71.7406353222 9.7441906319
49607 22 81.0935956194 73.7425760985 11.934062406
49608 22 82.9307191053 74.9331518484 12.8464224541
49609 23 83.2079713463 73.775127981 10.5675568264
49610 24 83.7134609246 5.6457496022 8.2987186753
49611 20 82.2329115083 5.1220478068 4.4537894618
49612 20 81.3607455519 3.8406102116 6.7621295095
49613 21 83.6324553778 4.4847792281 4.1959654565
49614 21 80.2175945274 4.845534531 7.2597710908
49615 22 82.5582432539 6.2278389983 5.3190802361
49616 22 81.7416399936 5.4918203553 96.7315948241
49617 22 80.9263462918 96.1062806437 7.1182826497
49618 22 82.5118474673 4.3592767546 7.4701236008
49619 23 81.4036803625 4.0450285508 5.2238285637
49620 24 33.7988906432 20.6879651705 50.2407716829
49621 20 45.4251509444 14.0374659035 67.2539943851
49622 20 42.8102432535 13.2730579031 68.003155383
49623 21 46.1995677133 12.7815993087 67.6406883001
49624 21 42.4123245514 11.8486137143 67.5999049071
49625 22 45.5563874134 14.9690296915 68.3323222643
49626 22 45.9787200274 14.3814120877 65.9962569925
49627 22 43.3105881377 13.1881236809 69.3015826289
49628 22 41.5450226695 13.9060423547 67.809434266
49629 23 43.8677117366 13.6286965739 66.9477447775
49630 24 40.7004509813 20.0549807189 72.5922225022
49631 20 56.123027814 76.5336194067 79.8613010774
49632 20 58.1157081409 74.4569402564 80.0388397931
49633 21 56.4407828283 77.4491878731 81.0899475636
49634 21 58.8285756606 75.0946017026 81.2471881226
49635 22 55.0321655893 75.6737071762 80.2319996708
49636 22 55.8143461692 77.4113977566 78.7565014087
49637 22 57.231007839 73.4448386211 80.5919411766
49638 22 59.2356612721 73.9641721035 79.2736834736
49639 23 57.4097625733 75.7435814758 79.3950982539
49640 24 53.2809117245 75.3166654071 79.322885457
49641 20 58.678724753 62.6571634549 27.7067309937
49642 20 59.1920716823 65.3965727425 27.6128169418
49643 21 58.8851672955 62.0094932402 26.3191602305
49644 21 60.2414021948 65.5411854161 26.4022236549
49645 22 57.6307973389 61.9905981819 28.4074383274
49646 22 59.9065293801 62.4463245375 28.2876137253
49647 22 58.3509609702 66.5264411024 27.4517412471
49648 22 60.070878971 65.4503581806 28.763170538
49649 23 58.2846411865 64.1292942808 27.3731677376
49650 24 60.2255004131 64.8546961461 30.5833633035
49651 20 86.5611894076 44.5585038417 49.3496171284
49652 20 88.3968162553 44.1694714294 47.1521779771
49653 21 86.6887778208 46.0235256359 49.8569775046
49654 21 88.1751267104 42.6879866142 47.0370303696
49655 22 87.4327005847 44.0083957348 50.3601285856
49656 22 85.170438288 44.2542185719 49.5797252636
49657 22 88.5783771863 44.6823506592 45.8604856035
49658 22 89.5742028804 44.3456070467 47.9061095095
49659 23 87.0267374519 44.5842273121 47.8204269681
49660 24 88.8312155154 43.7341367704 51.6196432362
49661 20 44.4211872797 26.5545065996 49.4218299253
49662 20 43.788296368 26.4219605722 46.6119850987
49663 21 44.1990300354 25.1600138843 49.9645483808
49664 21 42.9270745791 25.1851761154 46.4519383429
49665 22 43.8859520157 27.3662457855 50.4081145503
49666 22 45.7999652931 26.6925714808 49.0986495972
49667 22 43.1316463237 27.4067485589 45.8097869818
49668 22 45.1388253339 26.1028024594 46.2863727334
49669 23 43.5593107115 26.6705896061 48.1500615488
49670 24 43.9780888096 29.2242286675 50.9126687297