ITEM: TIMESTEP
13750000
ITEM: NUMBER OF ATOMS
4000
ITEM: BOX BOUNDS pp pp pp
3.23005382 96.76994618
3.23005382 96.76994618
3.23005382 96.76994618
ITEM: ATOMS id type x y z
49081 20 16.2807396021 39.3374812098 16.5726776061
49082 20 16.4291874112 38.3329563057 14.0482229911
49083 21 14.8985941525 38.7478992682 17.0879888731
49084 21 17.6786932934 38.7490217469 13.3333911337
49085 22 16.4935428572 40.6231870302 17.1825577043
49086 22 17.2948055751 38.4220998231 16.8567582592
49087 22 16.6577053683 36.9991709805 14.5411782238
49088 22 15.4865859159 38.2946984897 12.9660599764
49089 23 16.0785998947 39.4236314506 15.0603246264
49090 24 8.4082351813 43.4603455054 21.6098008097
49091 20 40.3959786317 53.0422914591 53.7125983277
49092 20 41.887846375 51.6670679616 51.8336625099
49093 21 40.8284135541 52.4252087892 55.1023205085
49094 21 41.7561422065 52.9387427983 50.9875941835
49095 22 39.0638770246 53.4989532136 53.8982750141
49096 22 41.2456950139 54.1570063564 53.603717893
49097 22 43.1761713124 51.7919437179 52.5411982557
49098 22 41.7784982408 50.5963168138 50.9226774982
49099 23 40.5418073239 51.8186025872 52.7205142294
49100 24 44.9306990734 50.9926453377 53.1999997176
49101 20 11.8120022004 16.1672757126 84.3521513096
49102 20 10.8482232735 15.4387870309 86.8800669006
49103 21 12.7408159156 14.8180563052 84.3721688466
49104 21 12.1388399383 14.7682930825 87.5223118016
49105 22 12.6066797099 17.2376527009 83.8249604763
49106 22 10.7024039353 15.8641129215 83.530590435
49107 22 10.1953522408 16.0302397703 87.9872050666
49108 22 10.1124478342 14.383750585 86.2491403267
49109 23 11.4618356134 16.485872586 85.8944370548
49110 24 11.2207739568 23.4760152022 88.4405929249
49111 20 87.9132150118 71.2116672309 88.0241533241
49112 20 85.2418092258 71.493970626 87.3067023497
49113 21 87.700972996 69.8038918509 88.7164420674
49114 21 84.5918005138 70.0750639988 87.6455973797
49115 22 87.7466204635 72.2589398657 89.0326069036
49116 22 89.1786226756 71.0907201501 87.3680645191
49117 22 84.9211544748 72.2831666979 88.4174885715
49118 22 84.6497952471 71.8343622943 86.0757173662
49119 23 86.7029023445 71.1527370987 86.9896021146
49120 24 87.8619551507 72.8653589879 90.7166055858
49121 20 38.8478934131 56.1929956535 55.6687980967
49122 20 39.7251105237 57.6540887721 53.4896927643
49123 21 38.522187508 57.1492539731 56.7995083155
49124 21 40.2754992503 58.844758062 54.3311776359
49125 22 40.1878523712 55.7003210404 55.8636416925
49126 22 37.8546868361 55.1192512291 55.6834838598
49127 22 40.8468409129 56.7802390977 53.2404089511
49128 22 39.2133537726 58.2765032159 52.3439226227
49129 23 38.6471568041 57.0573977988 54.3760767843
49130 24 41.5466128476 48.9878983646 50.1769774763
49131 20 78.637238046 50.8728207356 34.4604983019
49132 20 81.1754430252 51.1655070588 33.2815214986
49133 21 77.9673988768 52.1393508781 35.3330384178
49134 21 81.4278136548 49.6928149935 32.7801476755
49135 22 78.1581267173 49.753148224 35.1922608798
49136 22 78.0394245939 50.9303477694 33.1356928064
49137 22 80.619441905 51.9586318061 32.2141377869
49138 22 82.4507659176 51.6939139107 33.6975869398
49139 23 80.1775594535 51.0128499545 34.449086435
49140 24 76.8929061333 55.2082076667 30.3947868805
49141 20 46.0592578747 35.7915709702 4.2852866997
49142 20 48.1655891709 34.8348449511 5.817077269
49143 21 45.4423622846 34.559463508 3.6703573181
49144 21 47.9655073412 33.394143529 5.4371837042
49145 22 45.9862967587 36.8082560602 3.2921322243
49146 22 45.170067658 35.9630295929 5.4654608136
49147 22 49.5485764795 34.9761837285 5.9296992994
49148 22 47.3084831372 35.0228601348 6.9266755341
49149 23 47.6055658354 35.5007554448 4.5056386241
49150 24 47.3221399615 36.1548799121 8.4472506704
49151 20 60.0003498922 26.3331912143 32.9442166467
49152 20 60.2715220401 28.2128753513 34.9221176707
49153 21 60.6257576125 27.1376342886 31.7653333833
49154 21 58.6931298965 28.1358920199 35.3133950404
49155 22 58.5742406933 26.5584352751 32.8668591558
49156 22 60.4769356438 25.0252228994 32.7056899212
49157 22 61.0376137586 28.6356756647 36.023736983
49158 22 60.3332583691 29.3030827967 33.9723136037
49159 23 60.6091075117 26.8586983296 34.2766924134
49160 24 61.1602445574 23.9748634481 33.9354588861
49161 20 23.5419608263 55.8361409641 33.9230180804
49162 20 23.8040596047 52.9944925741 33.4901154586
49163 21 23.6578567529 56.3918614646 32.5129042031
49164 21 23.6970499678 52.6835659719 31.9796332767
49165 22 24.8860355396 55.8528846048 34.5120387826
49166 22 22.508064396 56.6934340776 34.4155056137
49167 22 25.2110866656 53.0211514434 33.7108696045
49168 22 23.0680877316 51.9165388545 34.111968663
49169 23 23.0024227272 54.3449280001 33.6723311689
49170 24 84.1725547163 62.7219866003 26.815763519
49171 20 96.3009371597 80.156232358 42.5793867992
49172 20 95.7846904937 81.4034932827 45.0400472076
49173 21 3.4124500623 78.8288077455 43.1637305067
49174 21 95.8323022989 82.9966647294 44.6689744546
49175 22 3.8246794325 81.0976178347 42.3863204613
49176 22 95.5540211192 79.8691584284 41.4154699185
49177 22 94.801586225 81.3498949244 46.0905001988
49178 22 3.5546241509 81.1842357751 45.4636893801
49179 23 95.2992184524 80.6381498835 43.7141192334
49180 24 5.4377355895 81.47542546 45.1896174955
49181 20 8.1005918293 12.9254636631 76.6658848145
49182 20 7.0279137596 15.2884684239 75.5441544253
49183 21 7.1467561929 11.8347698102 77.1184308137
49184 21 6.048279821 14.6257382865 74.5517897073
49185 22 9.1467232775 12.8881412461 77.6408511126
49186 22 8.5209975215 12.4892123131 75.3504333082
49187 22 6.2236764731 16.4368576824 75.9278550638
49188 22 8.1591571559 15.6538352435 74.8256745121
49189 23 7.3034542206 14.3357646202 76.7641017015
49190 24 4.3513913416 13.0617512863 82.339172826
49191 20 77.7197987817 76.9499654676 6.2547691333
49192 20 75.4656744556 77.6820086652 4.6923910192
49193 21 77.3584541775 75.8295446369 7.2883849439
49194 21 74.3864111776 76.6164957513 4.3303355119
49195 22 77.4053176636 78.2420320008 6.8738816189
49196 22 79.0758466013 76.7726138317 5.8751936041
49197 22 74.8481240863 78.4611024287 5.7837396514
49198 22 75.6080421718 78.413864783 3.5026749009
49199 23 76.7084454655 76.7846804778 5.0293778354
49200 24 84.1061413927 75.1654114012 4.4045126465
49201 20 56.2925220989 60.3707678659 81.1341919326
49202 20 54.4879504955 58.1722997758 80.7849139746
49203 21 57.7312591833 60.0337436338 80.5183252813
49204 21 53.2414378899 58.3929603819 81.5801901394
49205 22 56.6422677565 61.1034658428 82.3373955681
49206 22 55.6528027751 61.1343340073 80.13715022
49207 22 54.1670151248 58.6986487501 79.4971502765
49208 22 54.6363047648 56.7602215607 80.8723737739
49209 23 55.6689851765 58.9869386984 81.4975008746
49210 24 56.3965384592 56.6128026904 81.7836394053
49211 20 50.0160888615 53.8336389485 79.0539582664
49212 20 50.8767494111 56.4419988469 79.7296904489
49213 21 48.691283366 53.7105404501 79.9859897539
49214 21 49.757544599 57.015491927 80.6157938492
49215 22 51.0503594513 53.1519202129 79.8042417431
49216 22 49.5804735827 53.1498623353 77.8549639262
49217 22 51.818789667 55.8556908016 80.644604136
49218 22 51.4576321426 57.5511013506 78.9867966237
49219 23 50.2395556643 55.3849980633 78.7706259325
49220 24 52.2924756819 51.7749194575 79.6175361179
49221 20 80.5535898208 79.551403414 78.4089071687
49222 20 78.3684979352 77.9340986751 77.3803425123
49223 21 80.3159984942 81.0601083379 78.827498187
49224 21 77.9427043452 76.6876796094 78.2117250756
49225 22 81.2238031495 79.5832069774 77.1779221853
49226 22 81.2886262949 79.0050369027 79.496682577
49227 22 77.1389160502 78.412181065 76.8056334137
49228 22 79.3116606699 77.2555602959 76.5231429388
49229 23 79.069111729 78.9663113873 78.3753263474
49230 24 76.7510996564 79.7795472115 75.5523859358
49231 20 91.8603178497 75.8215002062 95.0982012237
49232 20 91.8250533102 76.0342099214 92.2657197432
49233 21 91.615804571 74.3442246861 95.3530038905
49234 21 91.7870761139 77.5659256588 91.8598501502
49235 22 90.5835918588 76.4367120782 95.3313961754
49236 22 92.8860763093 76.13102371 96.0270523548
49237 22 92.6130333635 75.382798111 91.2770966208
49238 22 90.4647961955 75.6166478419 92.2780670089
49239 23 92.5284733008 75.9857562571 93.6759271604
49240 24 26.7162370735 41.2783404363 9.0052722522
49241 20 96.5878240095 78.0045342141 38.2675719209
49242 20 5.2454082168 78.5438852334 39.8003165972
49243 21 95.9481046857 76.6383840861 38.6442570675
49244 21 4.3664699723 78.0846979018 41.0168028973
49245 22 96.3711856188 78.248766873 36.8647541552
49246 22 95.9032055374 78.9380623398 39.0664026017
49247 22 6.5906428248 78.0171620995 40.0686825483
49248 22 5.1927920274 79.9376296296 39.8715939951
49249 23 4.5512860916 77.846451796 38.5796210019
49250 24 4.8452819733 81.5539989696 40.844970115
49251 20 61.0159125035 71.8908603893 81.2163199581
49252 20 60.1907035731 69.1584665936 80.5504094644
49253 21 61.8017411393 71.6201559408 82.5514148418
49254 21 61.0961697312 68.4338130475 81.6138645007
49255 22 60.4284819795 73.1212841334 81.4860890077
49256 22 61.95748506 71.9551222954 80.1540809405
49257 22 58.9988182647 68.32736465 80.6048496818
49258 22 60.8960879014 69.1228278946 79.3120348295
49259 23 59.9677044698 70.6739063897 81.2196873943
49260 24 61.5102708347 67.636479005 78.4037624747
49261 20 32.1605394285 72.4779167538 66.3730356789
49262 20 34.5126000219 73.9809157442 65.7905627692
49263 21 32.4367627307 71.694707235 67.6875517862
49264 21 35.3961778452 74.2212197277 66.9935793248
49265 22 32.578101508 71.5324155218 65.3499898761
49266 22 30.7226442032 72.7638682047 66.2869789779
49267 22 34.9882503746 72.7625586462 65.1364383019
49268 22 34.4966982402 75.2131167463 65.0524394785
49269 23 33.0722727594 73.7924328611 66.4024072051
49270 24 36.6886185379 69.4446051243 57.4490493281
49271 20 3.9619772865 22.5699878048 89.7230248491
49272 20 96.4587389581 21.0730689073 87.6101457605
49273 21 4.2788792171 21.5866964563 90.8594410014
49274 21 95.5966753101 19.8981143194 87.9518469873
49275 22 3.5359461052 23.7382075205 90.4610545999
49276 22 5.1736818274 22.6934604627 89.0336358424
49277 22 95.9820596666 21.6763076732 86.3713034261
49278 22 4.2516497544 20.5691695072 87.5200668442
49279 23 96.285877237 21.9421480473 88.8858428125
49280 24 7.2884317139 22.0369974981 89.0469185072
49281 20 93.7759213053 71.4059495873 18.3308534229
49282 20 92.563083061 69.2056106993 17.0830312588
49283 21 93.6855617693 72.7390801332 17.5817859649
49284 21 92.1970614622 69.4851078977 15.6197867226
49285 22 94.9743544062 70.7628628273 17.9319993219
49286 22 93.7133431173 71.8534444324 19.6634227295
49287 22 93.7679704145 68.4006999256 17.09940074
49288 22 91.4670761422 68.3584198942 17.5091990084
49289 23 92.5092976229 70.6435059247 17.7397748431
49290 24 90.2087775102 68.624540888 19.0558811286
49291 20 32.1307937428 26.2602300983 47.0604153427
49292 20 33.5062978599 27.6101978248 45.187466078
49293 21 32.5983996647 25.2735713137 48.1060977994
49294 21 32.2893438603 27.9579791446 44.2526283937
49295 22 30.8967219429 25.6988972042 46.5914998623
49296 22 31.9952544387 27.5184351904 47.7513945275
49297 22 33.6871104719 28.7377276873 46.0411111356
49298 22 34.6835909452 27.3690519823 44.3833971632
49299 23 33.1697413272 26.2744481619 45.8433678032
49300 24 30.5880402981 22.2512973915 44.0066184768
49301 20 50.6750774031 26.5587158948 70.6286330818
49302 20 49.9770827264 24.9102623717 72.8097962919
49303 21 50.296334379 25.8020717055 69.3179521101
49304 21 50.1215083202 25.6551205346 74.1961510365
49305 22 52.0674187009 26.1925072162 70.8948476155
49306 22 50.44319201 27.9478768362 70.2958181448
49307 22 48.7450688041 24.1544600415 72.8863119238
49308 22 51.2297689648 24.2214346044 72.702786655
49309 23 49.6791581692 25.9602476635 71.7180922081
49310 24 52.7169597135 24.6360034073 71.6477502091
49311 20 73.7031022639 13.0871005971 89.6503443528
49312 20 73.2682353043 10.3626202763 89.1593534578
49313 21 74.44515423 12.6000383776 90.9402594684
49314 21 74.1527485265 9.7004794402 88.0113383588
49315 22 72.6629386608 13.9461709685 90.1174825752
49316 22 74.6859259129 13.6888427247 88.8872459109
49317 22 73.8948590432 9.974429723 90.3885611833
49318 22 72.0315443874 9.7010313256 88.9763894283
49319 23 73.1768468295 11.8588282705 88.7604058169
49320 24 71.2743389588 12.4032210901 87.7280060249
49321 20 85.1536011073 70.6410738875 81.8510816677
49322 20 84.9536128175 71.4161454356 79.108211404
49323 21 85.5380500649 69.072971132 81.939476866
49324 21 85.5987574551 70.2222022495 78.2806639763
49325 22 84.283118869 70.657162749 82.9892750779
49326 22 86.43743613 71.3083874796 81.9675388337
49327 22 83.8806167122 71.7382968249 78.1593427359
49328 22 85.9891929658 72.4030848399 79.2973490664
49329 23 84.4142617981 70.7981273668 80.4627625853
49330 24 76.8266798895 10.7228704637 50.7103419426
49331 20 72.6560167088 27.4735360421 12.9625990004
49332 20 71.6824535091 30.1120157859 12.6104213056
49333 21 71.8513865547 26.998259849 14.2041539917
49334 21 71.9409042317 30.147560945 11.0688838795
49335 22 73.9025293144 26.8026679341 13.0877553764
49336 22 71.8949761446 26.9970438304 11.8320290914
49337 22 70.3297731257 29.7708757984 12.9474455378
49338 22 71.9491357422 31.5001477885 13.0060015104
49339 23 72.7148533011 28.9886952185 13.2370450446
49340 24 50.4777082303 25.7725130995 45.9319500812
49341 20 76.0807927878 52.7796314413 28.1035272171
49342 20 78.2649492744 51.074118584 28.8115306624
49343 21 76.3946191267 53.6071788691 26.7850824343
49344 21 79.5011724918 51.5273193624 28.0182188353
49345 22 76.4448500489 53.6489912009 29.1470582563
49346 22 74.6802199795 52.5368954207 28.008864846
49347 22 78.5448206323 51.6330194408 30.0968623233
49348 22 78.3967469827 49.6537153185 28.7938516227
49349 23 76.9992609909 51.5758665666 27.9939920032
49350 24 75.838992166 57.6161115758 31.626613723
49351 20 61.5292594328 87.0786520921 29.1015978686
49352 20 60.9865409773 88.1283567642 31.668332515
49353 21 63.0229979739 87.3795699258 28.9319165039
49354 21 59.5936384402 87.4424287335 31.8789843525
49355 22 60.9743807913 87.2193360902 27.7607970515
49356 22 61.4732290373 85.7701225379 29.63917163
49357 22 61.8056698147 87.1709759659 32.3436905378
49358 22 60.9358423557 89.3804817633 32.2938337752
49359 23 60.9730712328 88.1283567642 30.0699228343
49360 24 56.580063728 78.3484803983 27.086000268
49361 20 34.2287064486 89.3578451094 95.7856258927
49362 20 36.658966392 88.0079709227 96.1105834787
49363 21 34.6240995736 90.8384880655 95.3885490496
49364 21 37.644409158 88.9475791415 95.2331792884
49365 22 33.076949754 89.5352902852 96.5880110893
49366 22 33.9947631778 88.7400141203 94.5370554094
49367 22 37.4855784208 87.7456850645 3.6519860833
49368 22 36.3904133611 87.0070005346 95.2391658415
49369 23 35.4914014556 88.8629255389 96.6127056209
49370 24 35.4650232059 85.4602248745 94.3778505126
49371 20 9.3564677781 18.9288539548 82.6868606059
49372 20 8.5759522083 19.4162903339 85.4123324496
49373 21 9.0755020034 20.1558167229 81.7994476471
49374 21 9.296620955 20.7585877892 85.3018618367
49375 22 9.0423140496 17.8425751848 81.8081468571
49376 22 10.7864121126 19.0240775652 82.9454984083
49377 22 7.3670800554 19.7793186561 86.1335250197
49378 22 9.4360608725 18.5961325576 86.1788918675
49379 23 8.3531869546 19.10676683 83.890344861
49380 24 6.0188615248 19.6199266795 87.3617973463
49381 20 30.9211358548 42.7462619671 76.9410791778
49382 20 31.6528048928 40.1459464994 77.9386821298
49383 21 30.2040590399 43.4179719342 78.1384833399
49384 21 31.6716064112 40.057644841 79.4031426846
49385 22 29.909408379 42.1156160129 76.1459900928
49386 22 31.6184757523 43.866495718 76.3242771276
49387 22 30.3556872055 39.6806790748 77.5184073935
49388 22 32.7739740426 39.2869696679 77.6015643578
49389 23 31.9277186365 41.7200358081 77.5674222971
49390 24 27.0786106165 43.1843092831 71.3304628942
49391 20 28.3535593494 23.4927588429 45.355183105
49392 20 29.5459123573 24.7703266928 43.0747740691
49393 21 26.8353133565 23.0988623562 45.0772760848
49394 21 30.6772773554 25.6861757789 43.6078579157
49395 22 28.4403643695 23.9526944936 46.6902779886
49396 22 29.0808320125 22.2833815746 45.1394801132
49397 22 30.1515831603 23.4976229173 42.6988372417
49398 22 29.0450997736 25.5966581019 42.015528328
49399 23 28.7431530011 24.6477894338 44.3522483791
49400 24 31.3123196846 23.2880935584 41.3362416297
49401 20 92.0056788424 69.2575253396 21.672098378
49402 20 94.7000954418 69.0109541833 21.1061820292
49403 21 92.1238197264 68.1841550748 22.8336767613
49404 21 94.9382480078 67.9077446928 22.186567786
49405 22 90.733816926 69.1475224262 21.0399557854
49406 22 92.2703967378 70.5887850877 22.2063982432
49407 22 95.5108992288 68.4932108791 20.0091461716
49408 22 95.1060585747 70.2968470836 21.5318820794
49409 23 93.2025217651 68.7959995107 20.7294968827
49410 24 95.4546817535 68.360384232 18.1434930185
49411 20 8.2765590748 45.1553818949 18.6720869502
49412 20 10.8107511926 46.417047963 18.5157817901
49413 21 6.84689536 45.8137156573 18.4507715649
49414 21 10.8711031311 47.6359663004 17.6129347491
49415 22 8.1167648767 44.3333533208 19.8640657986
49416 22 8.649147174 44.4990124702 17.4398859482
49417 22 11.6078046154 46.7926106308 19.6026217994
49418 22 11.2885436088 45.3824967535 17.6639139904
49419 23 9.2842923971 46.3590532298 18.9632766352
49420 24 10.4160970327 43.850032697 16.8846331471
49421 20 33.4288468291 25.5584938258 41.0544994739
49422 20 33.6577389457 23.4554364259 42.8647770108
49423 21 32.2304137281 26.442071649 41.5817838472
49424 21 34.5404749099 22.2783304204 42.4025964026
49425 22 33.535762926 25.7382774989 39.6135174321
49426 22 34.5819130822 26.0689410184 41.6709273646
49427 22 34.4822930968 24.2436035589 43.7270277385
49428 22 32.5609837077 22.7776463658 43.4839175583
49429 23 33.1345703277 24.1410838369 41.5667239245
49430 24 34.5503901385 24.8907125342 45.4237478461
49431 20 18.4896841601 11.0720174659 59.3002037979
49432 20 19.5529521166 13.7618038407 58.8797419817
49433 21 18.6126891186 11.0386050164 60.8659680561
49434 21 18.5822886536 14.2780505066 57.8456584717
49435 22 18.6005289326 9.7587547932 58.8118320199
49436 22 17.1258725295 11.5219724102 59.1042377234
49437 22 19.0649544982 14.2616810255 60.1872425971
49438 22 20.7838435602 14.3117248679 58.4956671837
49439 23 19.5280705052 12.1296075509 58.7568305632
49440 24 13.2176822868 9.6943712853 59.7300196033
49441 20 46.5957091574 28.7578387642 67.7970870002
49442 20 47.1482493016 26.5719050196 66.173047389
49443 21 47.8141597953 28.8898235523 68.7662538249
49444 21 48.6605087414 26.3111157997 66.6659090819
49445 22 45.442081665 29.2178679548 68.5163152325
49446 22 46.9648175727 29.5450704983 66.6743276722
49447 22 46.6518330928 25.2552374948 65.933211105
49448 22 47.3386965224 27.3390256769 64.9571223282
49449 23 46.4923475764 27.2443633058 67.367925974
49450 24 46.8865246828 31.4781659138 66.4453420157
49451 20 92.1367282316 47.6731951775 65.1471953895
49452 20 93.1340505639 49.5048933497 63.2854709119
49453 21 92.5034046096 48.1508098679 66.5857453941
49454 21 93.1459301303 48.8331833827 61.8573038353
49455 22 93.0855968997 46.7630520249 64.6648101646
49456 22 90.887596509 47.0571414464 65.291901603
49457 22 92.9065615457 50.8574801932 62.9276808236
49458 22 94.4412705597 49.3240807378 63.7179993741
49459 23 91.96433421 48.8791114698 64.1788704238
49460 24 83.7663109638 45.4963348025 65.3311883578
49461 20 46.5451040757 75.2474458868 9.6166957586
49462 20 47.1005439565 77.5281355423 7.9978382575
49463 21 45.2052386575 74.5338300479 9.3512388981
49464 21 45.6162529445 77.9425172654 7.462069816
49465 22 46.4061037956 76.1521637257 10.6672142278
49466 22 47.3914530217 74.0947537932 9.9086150547
49467 22 47.1188777754 78.2395999636 9.2355674672
49468 22 48.0601697122 77.79079556 6.9194636084
49469 23 46.9160832888 76.002406358 8.2849776651
49470 24 49.1814324019 73.8709128308 9.2320410133
49471 20 29.0746583796 39.4005270972 73.3075220591
49472 20 26.7442990412 40.0075074587 71.7102348572
49473 21 29.9569266443 38.9164581542 72.1237747213
49474 21 26.6075437186 39.0154233604 70.4670896877
49475 22 29.4202882819 38.4982412955 74.4048385364
49476 22 29.4465729916 40.7871624616 73.5338885986
49477 22 25.3915251179 40.2242393893 72.092719477
49478 22 27.4594115183 41.0943474681 71.1509598407
49479 23 27.5715658493 39.1857595044 72.8119477094
49480 24 24.1216275392 41.5853383631 72.3684750797
49481 20 78.1465277707 77.7297140103 71.961483008
49482 20 75.7462005928 79.0744435029 72.5268381175
49483 21 78.7171211141 79.2221429929 71.7609334788
49484 21 76.1624531138 80.3902691687 71.8545669111
49485 22 78.7035578297 77.0518304104 70.8469551906
49486 22 78.6816694949 77.2527540992 73.2253004937
49487 22 74.3727543533 78.9418039355 72.1795244971
49488 22 75.8739760858 79.2902400345 73.936764915
49489 23 76.5643004914 77.9044465292 71.8147189169
49490 24 41.2810530932 22.4752318938 57.302285237
49491 20 50.836807877 69.8342923159 12.0481343047
49492 20 49.1399006897 72.1191912666 11.6774076493
49493 21 49.8445366989 68.752316381 11.4520139247
49494 21 47.7410115995 71.5445757078 11.4033731806
49495 22 51.5203038705 69.1948536117 13.1143207058
49496 22 51.656310874 70.1810446969 10.9108014615
49497 22 48.8289740875 73.2546720199 12.3965984657
49498 22 49.6917860547 72.4426522143 10.4128418445
49499 23 49.8801753979 71.0152334569 12.5025043318
49500 24 53.9500961144 73.2696384027 16.9400087634
49501 20 33.2852630943 9.4206080823 22.0884444389
49502 20 34.8272682198 11.4883167569 21.0595056229
49503 21 32.8299108983 8.9627583711 20.7020896942
49504 21 35.9659293295 11.7530346523 22.0391489156
49505 22 32.0851462753 9.3393499778 22.8622064285
49506 22 34.2775342724 8.5077803347 22.581960911
49507 22 35.350249758 10.5170827005 20.1107304947
49508 22 34.4802352192 12.784779665 20.5247380583
49509 23 33.7321967 10.8997544002 22.0281112083
49510 24 29.9558041656 5.0693287235 26.9268889111
49511 20 32.6204750793 53.2086053877 26.3437612221
49512 20 33.7055378307 51.4892486262 28.2723667228
49513 21 31.1600367399 52.6209877839 26.0331152396
49514 21 32.6417086348 50.3871616145 28.3847081335
49515 22 33.0524423022 53.8073542387 25.148976177
49516 22 32.4315244967 54.2302480921 27.3226561957
49517 22 34.9125766017 50.7697397742 28.4278300239
49518 22 33.4120096484 52.440175172 29.3470465461
49519 23 33.5489520508 52.0224260127 26.8123960829
49520 24 38.6163821796 54.375422005 31.4569323582
49521 20 10.9515287306 16.3814820661 71.4993959398
49522 20 9.0014090547 14.4249081376 71.6980746712
49523 21 12.1871720007 15.6215639806 71.2352392838
49524 21 7.7334103358 15.2976353334 71.3567476039
49525 22 11.2823512679 17.5331452209 72.230877898
49526 22 10.40455421 16.649286778 70.2338011962
49527 22 9.4535434784 13.8994010224 70.4400566588
49528 22 8.4355394758 13.4939991289 72.6044762281
49529 23 10.0297024454 15.4469250016 72.3526668379
49530 24 11.3389803187 7.1721709816 72.7441312874
49531 20 9.2177481177 16.1283631174 66.2568591326
49532 20 7.4327544138 14.708801711 67.915414964
49533 21 8.2688326797 17.314074793 65.7053479272
49534 21 5.9516998821 14.612268542 67.5126321875
49535 22 9.9859444837 15.7932096831 65.1583266367
49536 22 9.944843055 16.6108418822 67.3625942002
49537 22 7.7726129047 13.4110292443 68.434187207
49538 22 7.5677605404 15.8616808843 68.7958124309
49539 23 8.1966760067 15.0209443318 66.6196068351
49540 24 11.7761015897 20.273022208 69.3398404449
49541 20 96.0687711468 78.3655981986 79.3275624516
49542 20 5.0903564913 79.6375536549 79.6097723069
49543 21 95.1822935869 79.5181032123 79.7979745703
49544 21 4.6758063963 81.0523445268 80.0990794838
49545 22 95.3346700716 77.1718420923 79.7045282178
49546 22 96.2170318762 78.5816753499 77.8853643912
49547 22 6.1774303503 79.2466504447 80.4245047693
49548 22 5.3581518491 79.7335255844 78.2158408309
49549 23 3.8863081906 78.7483634381 80.0578283913
49550 24 6.5024440603 77.9233415875 81.8322801493
49551 20 26.6385989629 41.1334471431 75.8566712057
49552 20 25.8341558886 43.2155516071 74.1407754202
49553 21 26.3354361717 41.9344292414 77.145183223
49554 21 25.6777571885 44.3955573492 75.1171448167
49555 22 27.7906362772 40.3671683449 76.1227921995
49556 22 25.4796396965 40.3283492895 75.6076680122
49557 22 26.3566697273 43.8054141683 72.9409392209
49558 22 24.5136532281 42.6816259015 73.9597757285
49559 23 26.8911566722 42.171085169 74.7133331014
49560 24 29.3943777317 45.1985037853 69.9385892959
49561 20 39.2228948416 69.4672417783 59.0573742373
49562 20 40.8072735384 67.3581042853 59.7297389836
49563 21 39.8833800216 70.8984021314 59.0938547953
49564 21 40.2380832934 66.0415303004 59.0299670488
49565 22 38.5815853396 69.4487208796 60.3341002281
49566 22 38.3056426571 69.5012902991 57.9304056142
49567 22 42.2311377799 67.2095629363 59.9071841594
49568 22 39.9706527411 67.3364030303 60.8648455774
49569 23 40.4490157507 68.4827344112 58.8071550252
49570 24 37.9150200666 70.8200157016 61.518689425
49571 20 70.7800741675 6.8012478925 85.96814649
49572 20 71.7443769179 7.51945654 83.3844811231
49573 21 69.2542514434 7.1251671857 85.9991081944
49574 21 70.4956193549 7.846191384 82.4845338188
49575 22 71.3756426622 7.903587462 86.6879359617
49576 22 70.817864284 5.6131041797 86.773712043
49577 22 72.256975528 8.7364198936 83.9677958919
49578 22 72.6538652913 6.9357021338 82.4446858246
49579 23 71.1276684075 6.537465396 84.4922740684
49580 24 66.2671485207 8.4920562788 93.1604288136
49581 20 74.3820148026 47.6412045343 36.5751546485
49582 20 74.1955897972 44.8953409941 37.3115006811
49583 21 73.1533683165 48.4126280266 37.2346108896
49584 21 73.0005241324 44.4919969783 38.2367037565
49585 22 73.8831665567 47.2800470099 35.2639124374
49586 22 75.4752155246 48.5946566572 36.653821698
49587 22 73.5887029755 44.6875888932 36.019434148
49588 22 75.2556773973 44.034212745 37.7147511571
49589 23 74.4849086842 46.4266825719 37.5602232549
49590 24 76.5493341086 42.8027600621 37.107396636
49591 20 76.1076387369 74.0375073791 58.7373742655
49592 20 74.9287554735 76.3123975613 60.0585317052
49593 21 74.8998516467 73.3932981404 57.9877455682
49594 21 75.5159989177 76.0156890227 61.4070963334
49595 22 76.2077264217 73.2713221208 59.8993268084
49596 22 77.2284337272 73.8164726134 57.8980408114
49597 22 75.0794482401 77.7154024068 59.9793034164
49598 22 73.5905737734 75.8049436452 60.1330829994
49599 23 75.7796878743 75.5784835658 58.9433491085
49600 24 78.1996584295 72.8389807383 52.8969304664
49601 20 83.3331277222 76.5477439304 6.9405100842
49602 20 82.4353318354 79.0506843702 8.015704377
49603 21 83.4487430292 75.4650196764 8.0874214124
49604 21 82.9976001283 80.4498540801 7.5754401656
49605 22 84.4206225108 76.1949114565 6.0550427552
49606 22 82.017676216 76.4011669191 6.4387059777
49607 22 81.3205233982 78.9542447412 7.104962569
49608 22 82.1786583707 79.1239261059 9.3665607325
49609 23 83.5351738897 77.9266154837 7.7565614592
49610 24 75.4722222481 8.6147338476 15.0407747889
49611 20 72.4993373891 8.7154388957 14.9542503885
49612 20 73.713391652 7.0514016266 16.913443434
49613 21 72.0691474241 8.0989829431 13.6630257144
49614 21 73.4723393494 7.549903775 18.3643407044
49615 22 73.7579166408 9.2908682516 14.7016926791
49616 22 71.4907902697 9.6911909289 15.1323503436
49617 22 73.6784077323 5.5995315413 17.00380297
49618 22 74.9666391299 7.7012326128 16.5308652742
49619 23 72.5226288223 7.5431782567 16.0481058898
49620 24 31.2749037277 27.6191776545 54.4011454754
49621 20 43.2538094231 17.6550277006 66.3876279021
49622 20 41.4711261545 19.9204703537 66.5930415057
49623 21 42.4636779523 16.2787752643 66.1823078384
49624 21 40.1113367393 19.3144253911 66.8373677046
49625 22 43.486817295 17.7886962068 67.8122404627
49626 22 44.454019782 17.5040543143 65.7071251852
49627 22 42.0356394049 20.1893975442 67.891094592
49628 22 41.1887292195 21.0997277767 65.8607176884
49629 23 42.2440462851 18.7777870286 65.8267627075
49630 24 43.6526635241 28.8156464176 68.5286624983
49631 20 52.1608650534 77.9506552361 74.9403544201
49632 20 53.5094296815 76.8797170084 77.110386383
49633 21 51.4934579214 79.3106317311 75.2094686905
49634 21 52.3013619717 77.1728710311 78.097606407
49635 22 51.081882395 77.0293808362 75.0939469234
49636 22 52.58965192 78.1837566478 73.6228450362
49637 22 53.4835191314 75.5384484919 76.6188342486
49638 22 54.7354570507 77.1516374755 77.7983722913
49639 23 53.303922538 77.9486908983 75.9757474887
49640 24 50.3417947667 76.0888372185 73.6097494513
49641 20 50.6677812915 64.0158303914 23.8415691015
49642 20 52.2079156192 66.080910595 22.4308004449
49643 21 50.3042852698 63.0150470831 22.7220836698
49644 21 52.1948200343 65.6623195767 20.9917827409
49645 22 49.5044256503 63.9314574085 24.639745003
49646 22 51.9051269877 63.5335387064 24.4099174875
49647 22 52.1941652551 67.494859608 22.4963719095
49648 22 53.424776079 65.5480138283 22.9083215954
49649 23 50.8922770332 65.4342693192 23.0746355241
49650 24 54.1871262017 65.5919775777 24.6450767769
49651 20 79.4327948305 38.0232457221 52.3841447765
49652 20 79.8339874288 39.4344820781 49.8967319588
49653 21 79.1183137124 38.9698694328 53.6406661505
49654 21 79.8786059575 38.3248183351 48.8371120582
49655 22 80.7820142379 37.6442220783 52.3611339629
49656 22 78.4928124522 36.893657982 52.5194034608
49657 22 79.1822014589 40.4647304526 49.2080912713
49658 22 81.1668373551 39.7454086803 50.1305816897
49659 23 78.9389977387 38.8614566975 51.0681320308
49660 24 82.3647092166 37.3019596121 53.0863487484
49661 20 47.5022042543 29.0213406409 46.8132829471
49662 20 48.1262088762 27.6728695527 44.3622571476
49663 21 45.9985504846 29.4372190024 46.7508918389
49664 21 46.6281675001 27.1884264502 44.1166213902
49665 22 48.1460393334 30.1050938338 47.5513126978
49666 22 47.4921019459 27.7714605992 47.5249344481
49667 22 48.5821223116 28.0626502842 43.0564402502
49668 22 48.8705057997 26.5452461503 44.9186324273
49669 23 47.9550308732 28.9612880301 45.2559372792
49670 24 46.8014033807 26.4879997362 48.7097107248
49671 20 49.0905116266 85.008801354 73.9530408563