ITEM: TIMESTEP
14250000
ITEM: NUMBER OF ATOMS
4000
ITEM: BOX BOUNDS pp pp pp
3.23005382 96.76994618
3.23005382 96.76994618
3.23005382 96.76994618
ITEM: ATOMS id type x y z
49081 20 21.0049718657 29.5323490729 15.8137884594
49082 20 21.5882866345 27.8534015449 17.8965477027
49083 21 19.9399266513 28.5741264156 15.1497487635
49084 21 20.7867432968 26.5404756158 17.5593363907
49085 22 22.2653283754 29.2130974203 15.1703275399
49086 22 20.4224054161 30.8338631352 15.4997750407
49087 22 22.9114084119 27.6686602575 17.3352148086
49088 22 21.6093331102 27.9162603526 19.3147995506
49089 23 20.9268660556 29.1123549562 17.2956474342
49090 24 14.0433589167 41.1211934172 18.4077432144
49091 20 41.639310881 52.7975911007 60.0207415887
49092 20 41.2644965323 51.9850100558 57.3986313261
49093 21 42.3591938926 51.5144108573 60.4534571308
49094 21 41.4457768437 53.3120605087 56.6366553629
49095 22 40.9476769168 53.0457524351 61.2368537293
49096 22 42.6431810058 53.6865006978 59.5532292067
49097 22 42.5879924693 51.4306926536 57.4015310627
49098 22 40.2573525112 51.2895409561 56.6299204907
49099 23 40.6957739867 52.2876116075 58.8674882558
49100 24 44.2796614226 50.9577549579 57.2487804185
49101 20 13.2418155791 12.0971959782 82.2605993164
49102 20 13.7978166993 10.307282076 84.2906020604
49103 21 14.2606520867 11.2628014304 81.4151857693
49104 21 15.3898656672 10.1328769466 84.2443933536
49105 22 13.6419792386 13.4093455263 81.957717145
49106 22 11.913137532 11.7224471075 81.8832593907
49107 22 13.4370333344 10.240316867 85.6512333347
49108 22 13.2848439296 9.2558656239 83.4830721697
49109 23 13.5168228626 11.7700776207 83.7865155805
49110 24 14.3669134044 17.0552499108 88.5824929416
49111 20 91.184772747 69.1200216978 89.5763542979
49112 20 89.6665267541 71.4981799212 89.2993826766
49113 21 89.8692277009 68.4358709251 89.3004116155
49114 21 88.4277779596 70.7249791709 88.632536784
49115 22 91.3482804789 69.1489255246 91.0182717386
49116 22 92.0845329717 68.2837750601 88.8317767547
49117 22 89.3285671231 71.6895625409 90.6567400547
49118 22 89.6091868001 72.7033478943 88.5562082318
49119 23 90.955412931 70.6288201616 89.0289588478
49120 24 91.0219197944 68.9598814021 92.8495957513
49121 20 41.0444907054 56.4314288391 59.6270321818
49122 20 41.3914301662 56.4043958102 56.9301835451
49123 21 40.9879926105 57.9985961957 59.6865235533
49124 21 41.4687876572 57.9297508349 56.7979181373
49125 22 42.3929617937 56.1623145688 59.9235536406
49126 22 40.1197553296 55.9351061702 60.6063948548
49127 22 42.7327922226 55.9120953567 57.0601104556
49128 22 40.6921259309 56.0059158687 55.7578480742
49129 23 40.5439587414 56.0897276123 58.2102769721
49130 24 40.3134764466 50.3735047902 55.0606017165
49131 20 79.556641648 48.342753727 28.925742871
49132 20 82.3048436855 47.9483895408 29.7153131024
49133 21 78.6197460861 48.403648197 30.2054621383
49134 21 83.1300526159 47.6499037443 28.4702035952
49135 22 78.7855923153 47.6528970209 27.9809899581
49136 22 79.7281002707 49.7474422906 28.6540094837
49137 22 82.5612365305 49.3608419155 29.992845963
49138 22 82.8616866647 47.1408596501 30.7449066976
49139 23 80.8507660588 47.51464506 29.3392827351
49140 24 81.2162264182 54.3448344602 27.9986689978
49141 20 43.557159294 35.6364818286 7.71412241
49142 20 45.7277524962 34.5345818966 8.9414032137
49143 21 42.9309097147 34.4417903234 6.8775203207
49144 21 45.2473316091 33.0344826429 8.7095739445
49145 22 43.2315469287 36.8778497402 7.0191771337
49146 22 42.8468173514 35.5982240127 8.9765742132
49147 22 47.1380534533 34.5279405643 8.6795008691
49148 22 45.3099097971 34.9577563697 10.2197942146
49149 23 45.0785856432 35.2796271393 7.7727906305
49150 24 45.0886879516 36.2993055059 11.5535701858
49151 20 51.2481027837 27.9596628627 50.1078514959
49152 20 52.9992631086 26.6198909844 48.3475242615
49153 21 50.5129727697 28.8826209806 49.068436212
49154 21 53.7778891726 25.3604698737 48.959742857
49155 22 51.3772813751 28.7249127221 51.2858929003
49156 22 50.2823033951 26.8968626057 50.2594796614
49157 22 51.8542412862 25.9830713972 47.8174336915
49158 22 53.8935980195 27.1978739793 47.3952881573
49159 23 52.6590585201 27.5628666393 49.5601754261
49160 24 48.5437709557 26.4882803558 50.887225879
49161 20 36.2422461716 55.6185671745 28.1449653894
49162 20 35.5590307978 53.0585674004 29.0016972636
49163 21 36.3469173111 55.8134107703 26.6179266467
49164 21 36.2591768921 52.1640454097 27.8715482841
49165 22 37.5738800792 55.4362579243 28.5802065086
49166 22 35.7131845404 56.8587190674 28.6380141621
49167 22 36.5631815423 52.9970181512 30.0003291544
49168 22 34.3864147071 52.3554280295 29.2967220841
49169 23 35.2217259459 54.4770063281 28.3387800464
49170 24 88.5592015084 55.6380234721 32.3762424203
49171 20 93.9688941032 85.6988451399 37.5721963611
49172 20 91.7049480885 86.3451122562 38.9726756296
49173 21 94.9939977836 85.3507832004 38.5878525124
49174 21 90.8660823338 87.0652758875 37.8638537455
49175 22 94.1645795581 87.0823936878 37.1732487202
49176 22 94.1831004567 84.7726131258 36.522585229
49177 22 90.777219436 85.697067882 39.8583113304
49178 22 92.4421359801 87.3745187717 39.6879751864
49179 23 92.5790783826 85.3467609851 38.2180893179
49180 24 93.1363890612 88.7235510993 40.6686474179
49181 20 7.9057295255 10.5546670293 74.1614477365
49182 20 6.5586521816 13.1472467479 74.6581445649
49183 21 6.8582136869 9.3679357689 74.2350636317
49184 21 5.1779098305 12.8025522445 73.8753092057
49185 22 9.1058556985 10.2494650685 74.8409215146
49186 22 8.1291027885 10.8388973462 72.7728480344
49187 22 6.1193514312 13.8318652201 75.7717369834
49188 22 7.4173577475 13.9187637801 73.802909329
49189 23 7.1927778199 11.7366464631 75.0340813923
49190 24 6.693910866 8.5665420951 80.7448789006
49191 20 86.0852584353 78.7528533529 14.7337768622
49192 20 85.8576758771 77.6033416157 12.2694122741
49193 21 87.579277596 78.844896607 15.2989448918
49194 21 84.3925605431 77.4137362539 12.5449995049
49195 22 85.7006223979 77.4808978966 15.3881819492
49196 22 85.4331918456 79.8881470265 15.2322509486
49197 22 85.7818150244 78.0724441759 10.9240280022
49198 22 86.5025398951 76.3625349436 12.5173865287
49199 23 86.2787924725 78.7681003554 13.2196466246
49200 24 86.743311578 71.5157654209 7.531663496
49201 20 58.6823728088 65.773351429 80.7652705972
49202 20 57.1416772418 65.5644768493 83.1287430574
49203 21 60.1098851061 65.1211912994 80.9897663388
49204 21 55.8435306156 65.5860845645 82.3082111217
49205 22 58.8978887208 66.9281014001 80.0027333947
49206 22 57.9015017874 64.7380519003 80.2045924824
49207 22 57.4607418146 64.2117964659 83.431531689
49208 22 56.8789236841 66.3392677777 84.302294547
49209 23 58.2638753304 66.3043773979 82.2482520506
49210 24 56.8611511046 66.5773268038 86.224539335
49211 20 54.144284931 59.4310661073 84.0974421827
49212 20 53.9260563621 62.0633722182 83.0901110819
49213 21 52.7770123244 59.0144394267 84.8469773402
49214 21 53.1646416383 62.511054143 84.3447616581
49215 22 54.9187952397 60.0765849045 85.0763371563
49216 22 54.661373456 58.1969007675 83.5732446259
49217 22 55.3125981866 62.4793441195 83.268117497
49218 22 53.2174916775 62.8026179875 82.0764192684
49219 23 53.7198944394 60.4499026149 82.986562421
49220 24 56.4182397143 60.070878971 86.0844165762
49221 20 84.3818034555 81.6490355002 70.511988836
49222 20 82.4497369788 83.0223881998 72.0217226987
49223 21 84.394431341 80.1172262229 70.7825997446
49224 21 83.0049897798 84.5026569964 72.1905622044
49225 22 85.7434636686 81.9868080515 70.3190160381
49226 22 83.6250657263 81.7563257567 69.3264642403
49227 22 81.59702732 83.03090033 70.8895158416
49228 22 81.8121690725 82.6991143318 73.2730058388
49229 23 83.7633176872 82.1933441338 71.8495157569
49230 24 81.6574540905 82.2195353037 69.2340468266
49231 20 94.4117119537 65.9478033282 4.2463741045
49232 20 96.0842052291 65.766335937 95.4862982371
49233 21 95.2883678249 66.5367304905 5.3585540706
49234 21 95.1291629281 64.8030621255 94.7673506244
49235 22 94.4028256639 64.5168300549 4.4871083715
49236 22 93.1767982947 66.6624481058 4.4898023204
49237 22 96.5736059459 66.5957541626 94.4422059586
49238 22 3.4863250631 64.9421559455 96.1792417597
49239 23 95.0619077455 66.4427228987 96.4551844422
49240 24 12.456258209 40.6649993621 93.9156699045
49241 20 96.2874674152 86.4248082445 33.0093204118
49242 20 3.9475309856 88.0832705361 34.8841404744
49243 21 3.3200509825 84.9813941655 33.0983703894
49244 21 4.4024454149 87.1286959345 35.9880047441
49245 22 95.9614808903 86.66333497 31.597055117
49246 22 95.1619018904 86.3973075162 33.9512671279
49247 22 4.8894234485 89.1229664396 34.9422287476
49248 22 96.230221001 88.5904438324 35.2888875886
49249 23 3.9701517377 87.277798523 33.5076074184
49250 24 94.628724504 88.8174651512 36.1623631035
49251 20 64.6726675156 67.332287275 75.9616229649
49252 20 62.5813961421 67.8186011754 77.7507604861
49253 21 64.1546435917 68.2188583748 74.710152745
49254 21 62.7046817202 66.7465404691 78.8600500696
49255 22 64.0915977042 66.0897968848 75.6805355884
49256 22 66.0729597042 67.3786830616 75.9694803159
49257 22 62.1455002437 69.0204017125 78.4605411893
49258 22 61.654228729 67.3102118604 76.8258380304
49259 23 64.0503466117 67.950211804 77.1867149352
49260 24 62.8711827286 64.5826821391 75.6837159447
49261 20 25.9731561686 82.767585533 65.3165961346
49262 20 28.6950734964 83.5666968335 64.7610627138
49263 21 25.3896543201 83.3271411691 66.6687152786
49264 21 29.2841877385 84.2892925019 66.0745498824
49265 22 26.3996045379 81.4378224232 65.5545616207
49266 22 24.8914608534 82.800605115 64.4236643221
49267 22 29.0497767682 82.1571441955 64.8762103213
49268 22 29.1854096121 84.370952828 63.696391659
49269 23 27.1044276268 83.7284273074 64.9107265416
49270 24 29.8660994089 73.4493285359 63.2735913455
49271 20 8.6000761465 14.4765421582 91.5406920375
49272 20 6.8275232482 13.4557413129 89.4529751799
49273 21 9.0497224091 13.2127246725 92.3721681407
49274 21 6.586162264 11.9579431405 89.7636211624
49275 22 8.5024672688 15.5292401068 92.5577512871
49276 22 9.6952786222 14.5707368298 90.6683390013
49277 22 5.5917490223 13.9867672818 89.0138989252
49278 22 7.8092992505 13.5796816703 88.4577107252
49279 23 7.178812314 14.1079014424 90.9131328996
49280 24 11.217949052 15.3060539237 89.3782368059
49281 20 7.629852321 70.8364787226 18.5770504196
49282 20 5.9848784819 69.2242251379 20.1349573269
49283 21 8.8747373324 70.2207991511 17.9569744732
49284 21 5.208740579 70.0635585921 21.1713793342
49285 22 7.9543047916 72.1572620027 19.0466206793
49286 22 6.668711219 70.7898958562 17.5120052052
49287 22 5.1433936102 69.1440614502 19.0089241026
49288 22 6.2604095888 67.9699487213 20.7672869992
49289 23 7.3357628994 69.9821788857 19.8604177428
49290 24 5.0625470813 70.0089312949 17.161978928
49291 20 31.5552427851 27.705608515 49.80010525
49292 20 32.5586452104 28.8399667897 47.3166211079
49293 21 32.8152251352 27.1953484022 50.6228821432
49294 21 31.29024427 29.1549156072 46.4614794119
49295 22 30.5663390431 26.7112794592 49.9342414557
49296 22 31.315500041 29.0258305558 50.3434784847
49297 22 32.9340207985 30.0734773502 47.8721545286
49298 22 33.5878646461 28.3925654845 46.4629760502
49299 23 32.0481044779 27.665666981 48.2746566854
49300 24 29.8441175341 23.6397100138 48.0147093245
49301 20 55.0822094317 28.7950676413 76.595916975
49302 20 57.0303647699 26.6967807759 77.056507405
49303 21 53.9610402819 28.599849886 75.4889658888
49304 21 57.3454071273 26.2815571937 78.5324733665
49305 22 56.0315457992 29.6212119707 75.9214008112
49306 22 54.4461381636 29.449753348 77.723072678
49307 22 57.0265296343 25.4685084493 76.2771330219
49308 22 57.9995315946 27.6245094283 76.6309944346
49309 23 55.5626303188 27.3071285736 76.9656801695
49310 24 58.0108499216 29.0980433527 75.5816639222
49311 20 67.1613898917 12.1781079851 86.7556588438
49312 20 64.9820974795 10.2630470609 87.2396342469
49313 21 68.4881597249 11.483003691 86.4967404217
49314 21 65.4230445321 8.7370091949 87.1601253384
49315 22 67.556502397 13.3116898787 87.5021071848
49316 22 66.6556196937 12.4821313433 85.4385236195
49317 22 64.0105921574 10.3497024171 88.3470530325
49318 22 64.4130007744 10.4339818602 85.9352204479
49319 23 66.3298202486 11.0940367566 87.6303503773
49320 24 63.9363214829 11.7830609577 89.7002946553
49321 20 92.6312736425 76.6380099266 87.4483217467
49322 20 90.7120221311 75.1908542519 85.904726443
49323 21 93.1796044915 76.0308424853 88.7250477375
49324 21 90.5892042524 76.0138182249 84.5957291893
49325 22 91.6299290948 77.513636859 87.878231092
49326 22 93.7718990899 77.26070499 86.8149631356
49327 22 90.82595372 73.8445345811 85.5026919856
49328 22 89.4983420277 75.439296206 86.6638026695
49329 23 92.1042698889 75.4165660121 86.5630602054
49330 24 72.835706842 95.0152313392 46.1781470779
49331 20 83.3792428892 38.3278116116 91.3313497584
49332 20 85.8297074493 37.9098753726 92.699464224
49333 21 82.3127945764 39.4523481976 91.8923084929
49334 21 86.3059190413 39.4172707379 92.6749567722
49335 22 82.516430922 37.1956982944 91.0687832805
49336 22 84.0283162023 38.9615443824 90.2501221426
49337 22 86.178424168 37.4094369484 93.9828315472
49338 22 86.4998272382 37.2543478069 91.5854976459
49339 23 84.2469189307 38.0340028097 92.6123785842
49340 24 57.6164857354 38.609927927 62.0022906685
49341 20 83.4738117203 53.5819230981 25.9092684221
49342 20 83.535828669 50.725588945 26.8095898861
49343 21 84.4903097306 54.3978715792 26.7567398469
49344 21 84.3641244158 50.8544869167 28.1389788363
49345 22 82.2432944364 53.8996781125 26.5089526721
49346 22 83.7343203206 54.19732205 24.6534018273
49347 22 82.1561152567 50.7708622529 27.2744831511
49348 22 83.9688248307 49.4988132567 26.2289877742
49349 23 83.9659250941 52.0170942388 25.9461231397
49350 24 80.5882931208 57.0602975354 29.7264443496
49351 20 59.1611099779 85.8384066593 28.5332494826
49352 20 58.522326053 84.8377168909 31.0051346781
49353 21 59.8374033997 84.969701679 27.4519283269
49354 21 58.8024780306 85.9149222913 32.0872041529
49355 22 59.7515337785 87.1315021313 28.4074383274
49356 22 57.8024430414 85.8442061326 28.178359131
49357 22 57.1735743451 84.9236800519 30.6479993691
49358 22 58.8745037477 83.6152440376 31.5664675722
49359 23 59.4977600505 85.040043678 29.8202648616
49360 24 56.0643783015 76.1335492871 27.4715717043
49361 20 32.2932725358 76.4683285618 88.1396750912
49362 20 35.016592962 77.0887786679 88.7769623778
49363 21 32.3879349069 76.5671066882 86.6661411668
49364 21 34.7215681415 77.7339233055 90.1929692684
49365 22 31.8938571954 77.8013655679 88.5040129719
49366 22 31.3738689338 75.4033768873 88.4652874565
49367 22 36.2579608735 76.4020087782 88.9840596995
49368 22 35.0628016688 78.2028387859 87.8802889696
49369 23 33.7655904416 76.1661011696 88.5299235221
49370 24 37.9351311435 76.1252242367 89.4448372093
49371 20 10.2572288796 14.6308829806 81.9840018547
49372 20 10.3951721588 14.1235226045 84.7546534664
49373 21 9.2848816985 15.8221135098 81.7414529138
49374 21 10.1196597599 15.597711308 85.1492047324
49375 22 10.0916632701 13.7372963889 80.8737768723
49376 22 11.5469194995 15.2952032962 81.9911108866
49377 22 9.6981970668 13.4364720951 85.7801313064
49378 22 11.8483050326 14.0716079642 84.8296724601
49379 23 9.7170734171 14.0371852838 83.3444460492
49380 24 9.1043964762 12.4979208771 87.3155886395
49381 20 20.8554951177 50.4503945817 65.5671895062
49382 20 22.1488712094 48.7175680757 67.296648576
49383 21 21.1621188849 51.7964336328 66.2565785129
49384 21 21.7959451955 49.8399532442 68.3695511414
49385 22 19.5762435498 50.1045775996 66.0085107184
49386 22 20.9826158314 50.6705874883 64.1815830807
49387 22 21.1282574438 47.7668286098 67.3852308541
49388 22 23.4546881067 48.2388309066 67.5448099105
49389 23 22.0682398222 49.5827185402 65.9304984481
49390 24 16.2557644508 47.9765450484 61.6993149571
49391 20 27.6963480657 24.9424400947 49.6055422739
49392 20 28.2411243988 26.1608907326 47.0306696569
49393 21 26.4303791625 24.0529692582 49.6069453723
49394 21 29.1407910835 27.4387392021 47.2549783188
49395 22 27.7030829379 25.5658834773 50.8614088687
49396 22 28.7513845116 24.0391253542 49.380391753
49397 22 29.0729746615 25.0245681202 46.7849403597
49398 22 27.3708292403 26.4439424469 45.9574864719
49399 23 27.5174062516 26.0349860375 48.4167437819
49400 24 30.0679584966 23.3734019403 44.4259578143
49401 20 4.1611059448 73.5389397528 16.9214878647
49402 20 4.6163992107 74.3018511149 19.5496782204
49403 21 96.1525828904 73.720407144 16.77790413
49404 21 3.5194671824 74.0159932038 20.6416629238
49405 22 4.5359829652 72.3909246539 16.1618503989
49406 22 4.7137087607 74.7704859756 16.604948869
49407 22 5.8080226074 73.9951338078 20.2074507434
49408 22 4.5152264631 75.6842771841 19.1979682251
49409 23 4.2706477065 73.2695448628 18.413355608
49410 24 7.6066170117 73.5399686916 20.3723615737
49411 20 14.1148233945 40.1589485445 15.1533968193
49412 20 15.583867404 41.3412927839 12.9887901702
49413 21 12.5867557129 40.2962651064 14.7450951892
49414 21 14.4485737304 41.4838475799 11.9284687204
49415 22 14.1293220778 40.2972940453 16.5416223619
49416 22 14.4625111744 38.829746674 14.6953319665
49417 22 16.5186115483 42.3702315999 12.6255747682
49418 22 16.1116194767 39.9796325708 12.743060873
49419 23 14.917302131 41.3823567966 14.3529759604
49420 24 16.0998334502 38.6609071683 14.0212835021
49421 20 31.4544067811 25.8479997926 44.111570236
49422 20 32.419083691 24.354728951 46.3945983889
49423 21 30.2713142226 26.6038021229 44.6800121619
49424 21 33.2036963081 23.1023233322 46.0706697416
49425 22 31.1172890091 25.4241705404 42.7992990861
49426 22 32.5492912212 26.7821826976 44.2033328704
49427 22 33.3672975799 25.3510223445 46.7623037057
49428 22 31.6356870925 23.8822589547 47.4869572518
49429 23 31.5672158913 24.5788505331 45.0827949384
49430 24 33.8821411474 26.4253280083 48.1775622771
49431 20 14.8709998843 22.5718586026 61.6801392792
49432 20 12.8348235074 24.4044921737 62.415456373
49433 21 16.0417451771 23.2524548594 60.9982334639
49434 21 12.1848335034 23.8918935636 63.7593440066
49435 22 14.0615056558 22.0010781794 60.6673828646
49436 22 15.4493570388 21.5832354803 62.4772862419
49437 22 12.8549345843 25.828543495 62.5326618582
49438 22 12.1029580356 23.8800139973 61.277075883
49439 23 14.2183720553 23.763837451 62.4834598748
49440 24 11.9200969 19.0783307028 58.7963979376
49441 20 46.478784292 25.9131970976 75.0766420433
49442 20 47.0331016941 23.9462402411 72.9907959836
49443 21 47.2779891323 25.4925482017 76.3370920929
49444 21 48.0770068928 22.8229196737 73.3645813934
49445 22 45.2405031969 26.3278594404 75.6284338683
49446 22 47.2377669786 27.0410075798 74.5334558884
49447 22 46.0263318326 23.3120397709 72.2493052568
49448 22 47.7750601203 24.8864096992 72.1229328623
49449 23 46.5287345945 24.4566874337 74.4221434165
49450 24 47.8313711355 28.6907706613 74.9928302997
49451 20 76.9891586825 46.3105060256 59.5449041563
49452 20 78.6096437777 44.2829353188 58.3761232012
49453 21 77.3638794913 47.5293308231 58.6606715538
49454 21 79.3328006856 44.9234029618 57.113708814
49455 22 76.9391148401 46.8400353563 60.9357488158
49456 22 75.8041017862 45.818299112 59.0097624321
49457 22 79.5994829187 43.3669926928 58.8415777056
49458 22 77.4214065251 43.7086939196 57.8221799587
49459 23 78.2729001652 45.407284825 59.3540827759
49460 24 76.6493282536 44.69900076 51.6072024305
49461 20 44.2995854197 80.2934553801 10.5542648077
49462 20 43.5765220517 82.704165486 9.3601158339
49463 21 42.9785215199 79.5034174492 10.7076702312
49464 21 42.0055195595 82.6029553225 8.9256417419
49465 22 44.5802050968 80.8292518835 11.8220296769
49466 22 45.3274952968 79.3076384545 10.2162116368
49467 22 43.7793165384 83.2082519659 10.7003273497
49468 22 44.2096000432 83.4629610928 8.292863078
49469 23 44.0424442556 81.2107075646 9.2906156939
49470 24 47.093996164 79.6818915639 10.1757182173
49471 20 19.4597863838 46.0124879286 64.0665290131
49472 20 17.3396111836 44.9967382374 62.5055352894
49473 21 20.2940686838 45.5700442377 62.8370406679
49474 21 18.2966178223 44.2721782312 61.602127009
49475 22 20.2098827806 45.6070860351 65.187604623
49476 22 19.2543727802 47.4276529601 64.0062893224
49477 22 16.2821427004 44.0100794528 62.6012265993
49478 22 16.9819146352 46.2274426012 61.9181983052
49479 23 18.079605272 45.177831469 63.8655117844
49480 24 15.0041071511 44.9561419241 63.5532756237
49481 20 82.3112043982 79.4286790752 66.4314045717
49482 20 80.2075857589 79.5442008423 68.3666514048
49483 21 81.5851477537 79.5427977439 65.0384084947
49484 21 79.110830521 80.1965480516 67.4194664547
49485 22 83.3391142754 78.4578285324 66.0923224619
49486 22 82.8230546892 80.7488075761 66.6980868048
49487 22 79.4126837536 78.6808276358 69.1656691653
49488 22 80.8255102879 80.6272057161 69.1362040992
49489 23 81.1704854109 78.8359167774 67.3482825966
49490 24 44.9844845115 27.914202475 62.8757661833
49491 20 50.1699619844 75.7551804225 11.9084324754
49492 20 47.7960130562 77.2414357722 12.0602944907
49493 21 50.0635135869 74.4306555467 11.058089376
49494 21 46.4723300394 76.6848734126 11.8005809796
49495 22 51.0974100171 75.4495855941 12.9748527263
49496 22 50.6132475343 76.7771037465 10.9805354512
49497 22 47.6275477101 78.1745897384 13.0943031688
49498 22 48.1086233765 77.9007049335 10.8327143593
49499 23 48.7426367669 76.0315908044 12.4578670952
49500 24 52.4406428714 79.0510585298 17.5546593961
49501 20 27.9468478974 88.5750097502 20.9570794408
49502 20 26.0766112896 89.3559743115 18.9003242876
49503 21 29.1798907585 87.8442761111 20.2294326181
49504 21 24.7133608983 89.7532382344 19.545656005
49505 22 27.0657956513 87.541955179 21.4264626207
49506 22 28.6167806065 89.2351207706 21.9672167384
49507 22 26.1976519103 90.310548913 17.8402366875
49508 22 25.8441646571 88.0245274837 18.5036216041
49509 23 27.2262165667 89.6128348559 19.9739751721
49510 24 24.379891182 85.2521921539 26.4065264899
49511 20 45.6387025187 48.8417890528 29.2315247791
49512 20 46.554364525 49.6896346371 31.8358624622
49513 21 44.6485827581 47.8415669838 29.907724661
49514 21 45.3733298441 48.9208302618 32.5853040798
49515 22 46.2367030506 48.1726982027 28.1408496342
49516 22 44.8499741463 49.9199298521 28.8637259223
49517 22 47.7334348682 49.5870213752 32.625058534
49518 22 45.9806843652 50.9870329442 31.7103319266
49519 23 46.708144108 48.9278457538 30.4376281512
49520 24 49.1607600857 55.3199878381 28.4487829598
49521 20 10.0232856088 16.679687243 70.6651136398
49522 20 8.4304134897 14.4210730021 70.7439677691
49523 21 10.8905220128 15.775904803 69.7473937559
49524 21 6.9032812071 14.5235927241 71.0067213267
49525 22 10.9079952647 17.2763782163 71.5621612076
49526 22 9.4088594718 17.5835632228 69.7692820907
49527 22 8.4973599907 14.2486789804 69.3314218546
49528 22 8.8969904728 13.289708004 71.4293345604
49529 23 8.9772664085 15.767205593 71.3399104233
49530 24 10.3841718675 7.2692466819 68.6693464964
49531 20 6.5319746043 18.3875385977 66.4811677945
49532 20 5.6280986245 16.2983251018 68.171807809
49533 21 5.6455905843 19.6488305063 65.9930766361
49534 21 4.0932941998 16.4692224852 68.7670021441
49535 22 7.2877208107 18.0387283391 65.3269790626
49536 22 7.3240891208 18.8489708867 67.5889607397
49537 22 5.7189913379 14.8927011393 67.932813384
49538 22 6.4845405249 16.8981964315 69.1509834022
49539 23 5.5571299081 17.2079070151 66.9114512993
49540 24 10.5255480608 22.0380264369 71.4807815012
49541 20 11.8369773517 74.3842597601 85.8576758771
49542 20 13.2310584914 75.5642655022 83.6701519544
49543 21 12.2708714964 75.364557832 86.9802481254
49544 21 14.7959808906 75.8708892693 83.9218678048
49545 22 11.7178917147 73.1413952103 86.5630602054
49546 22 10.6410885358 74.9130407716 85.3448901872
49547 22 13.2476150524 75.0898311681 82.3495557541
49548 22 12.6489597413 76.8597930114 83.9189680681
49549 23 12.9619442211 74.4285041291 84.7567113441
49550 24 11.8179981075 71.2913632192 86.5028205147
49551 20 17.2820841498 47.3014676453 67.0357658163
49552 20 15.9274394286 47.9980592237 64.6813667256
49553 21 17.0589915065 48.3925169498 68.1952863219
49554 21 14.7441597903 48.6378720874 65.3903991096
49555 22 18.6126891186 46.900275047 67.1886100004
49556 22 16.3218036148 46.3028357545 67.2312641913
49557 22 16.1531511889 48.869383321 63.5930300779
49558 22 15.5067905327 46.7381704135 64.3244184963
49559 23 17.104638974 48.1036657622 65.7019804911
49560 24 16.3368635375 50.8670212623 59.2733578488
49561 20 32.3485546122 72.4754847166 61.4315102453
49562 20 34.0298406375 74.7076271679 60.9949595676
49563 21 33.2492502357 71.5320413622 62.3925390994
49564 21 33.706940929 75.5550050528 59.7621973262
49565 22 31.7104254665 71.623429837 60.4814255586
49566 22 31.444117393 73.2659903469 62.2261316309
49567 22 33.4354881614 75.4554786074 62.0936791433
49568 22 35.4225560948 74.7038855722 61.1459329539
49569 23 33.4452163102 73.3172502079 60.6738371172
49570 24 32.1013286767 79.6180973573 65.264962114
49571 20 62.7686630066 6.595675271 87.1785526972
49572 20 62.2803847685 7.575982697 84.6058314977
49573 21 61.5306625312 5.8025972937 87.3529110565
49574 21 60.8068508441 7.1080213235 84.5562553547
49575 22 62.5850441979 7.8812501357 87.7960095266
49576 22 63.7067745871 5.7798577458 87.9346356471
49577 22 62.1762748683 8.9000585813 85.1290936556
49578 22 62.7335855469 7.5126561898 83.2114323223
49579 23 63.0665875637 6.6275723743 85.596231878
49580 24 62.471112609 6.5196554005 3.5519760365
49581 20 74.5771390181 46.7995325829 26.0668831408
49582 20 71.8162155552 46.7270391663 26.9042522572
49583 21 74.7012664553 48.2820463369 25.4640185345
49584 21 71.2060548373 48.1625023545 26.8675846194
49585 22 74.2128946773 45.9026720949 25.0016508466
49586 22 75.8136428552 46.5481908921 26.7150210549
49587 22 71.4401851879 46.2364224309 25.6354771572
49588 22 71.3107259769 45.9504709799 28.0302854814
49589 23 73.3411028805 46.974078022 27.0694437071
49590 24 71.0913749293 44.2004331338 28.5210892966
49591 20 81.6835517205 66.025347899 61.5656464509
49592 20 79.8615816971 66.6061370906 63.5682420065
49593 21 81.5422129431 64.5058858875 61.235357091
49594 21 80.247527293 68.0913635015 64.1149826773
49595 22 82.7864805913 66.0433075583 62.4714867686
49596 22 82.1357235601 66.660577308 60.4031326687
49597 22 78.4187288574 66.5537547509 63.6923694436
49598 22 80.6696728272 65.812451104 64.4529423084
49599 23 80.3427509034 66.6139009017 62.1266051854
49600 24 82.0345133966 65.9686627242 55.1567607259
49601 20 86.9372197749 71.9779460291 10.7149008649
49602 20 89.2249249223 72.9012783066 12.0345055424
49603 21 86.090683749 70.9434883595 11.4090042822
49604 21 90.6779736102 72.4910123387 11.4294053327
49605 22 86.929268884 71.6420442756 9.3208664951
49606 22 86.3379096845 73.1799336459 11.1841998588
49607 22 88.9488887 74.2432951423 11.5752059629
49608 22 89.2691692914 72.7327194205 13.4533092757
49609 23 88.3594002983 71.7931112018 11.3637496822
49610 24 66.2493759412 9.0946589734 21.2850303034
49611 20 64.3440618737 12.0079402129 18.3204704949
49612 20 64.0061022426 10.8194316946 20.7766409884
49613 21 63.9195778422 10.7098777727 17.5377286756
49614 21 63.3834071792 11.9475040885 21.4992366569
49615 22 65.3418519055 12.619681755 17.4846915566
49616 22 63.1326267278 12.7803832901 18.493238676
49617 22 62.8941000022 10.1477030196 20.1146591702
49618 22 64.7091480736 10.0675767478 21.8304614158
49619 23 64.9162453953 11.4911603696 19.6851239845
49620 24 33.2384931481 30.2816036107 56.3698795899
49621 20 46.5493133708 17.563452146 64.1593205863
49622 20 44.7970305672 18.4329054455 66.0234771011
49623 21 46.1161301293 18.2390907885 62.8690313111
49624 21 43.4845723375 17.8636216606 66.7164206237
49625 22 47.1230870706 16.3670769227 63.741571427
49626 22 47.4837768955 18.5475853535 64.7586306766
49627 22 45.7204563846 18.5731217441 67.107230294
49628 22 44.2683430956 19.6232005758 65.4559705742
49629 23 45.2576209972 17.3312861332 65.0139010429
49630 24 43.2738269601 26.6076372585 75.0892699288
49631 20 56.5995200257 78.0592550511 70.6776479854
49632 20 58.2057870573 76.5997521106 72.3885861566
49633 21 55.6056586693 78.9039202791 71.5916262736
49634 21 56.8185904536 76.3515907762 73.1718892152
49635 22 55.924910322 76.8518421205 70.382529625
49636 22 56.8418818868 78.9784715733 69.5858503618
49637 22 58.3895929457 75.4178755706 71.6557946398
49638 22 59.08983258 76.889632237 73.4766421845
49639 23 57.9098268378 77.8563670246 71.5663705027
49640 24 54.524898753 76.1728360419 69.4713575335
49641 20 54.8787601658 67.7742632664 22.7178743746
49642 20 53.6742469719 69.3005536901 24.7502156159
49643 21 54.3131244367 68.5248273627 21.5821130016
49644 21 52.8394034326 70.2622373234 23.7877836634
49645 22 54.8320837595 66.3886568409 22.2525134101
49646 22 56.2147904484 68.3362509397 22.9054218588
49647 22 52.8678395598 69.1218924957 25.9063686855
49648 22 54.8904526523 69.9535556786 25.0510399097
49649 23 53.8226012412 68.0363620448 23.8075205807
49650 24 56.659198477 69.052111736 24.5854918655
49651 20 76.1329880477 32.7257074582 43.591020735
49652 20 77.9476619595 33.4376395789 41.6023626235
49653 21 74.9544789439 31.7533602771 43.4656772793
49654 21 78.5592257758 32.1221880727 41.0672208993
49655 22 75.4633359583 33.7482855615 44.343642709
49656 22 77.1038385905 31.9660699923 44.3170773795
49657 22 77.9857326957 34.3101796949 40.4638885936
49658 22 78.8982143457 33.760819907 42.6089454052
49659 23 76.542037997 33.2457892597 42.1387203663
49660 24 74.7304509017 35.4023514781 43.9648996848
49661 20 59.8271140115 40.7938037939 61.9567367409
49662 20 59.0156554453 41.1271799703 64.6196303966
49663 21 59.6371344902 41.9701614802 61.0302241071
49664 21 59.2389351684 39.6954583778 65.0230679523
49665 22 58.6095987726 40.0808427343 61.8392506361
49666 22 60.9195664144 40.0732660031 61.4524631812
49667 22 59.4270438919 41.8293839422 65.8205890746
49668 22 57.6419285861 41.2842334496 64.2483705638
49669 23 60.0055881262 41.3167853321 63.4289611067
49670 24 55.9946910817 42.0749261597 64.2213375349