ITEM: TIMESTEP
14500000
ITEM: NUMBER OF ATOMS
4000
ITEM: BOX BOUNDS pp pp pp
3.23005382 96.76994618
3.23005382 96.76994618
3.23005382 96.76994618
ITEM: ATOMS id type x y z
49081 20 25.2178215378 23.7869418044 10.1182940774
49082 20 23.8755240824 23.4117532961 7.6606924235
49083 21 26.685368909 24.1936532564 9.941410141
49084 21 22.4744835747 22.9520982651 8.2229326545
49085 22 25.2523377581 22.9668775681 11.2826225336
49086 22 24.584182307 25.0771375397 10.2349944471
49087 22 23.7587862968 24.7905313095 7.4625094535
49088 22 24.0597041305 22.5794353339 6.5146510163
49089 23 24.8547932156 22.9812827115 8.8635686693
49090 24 16.0257498555 35.603181627 15.0630372833
49091 20 49.0150249334 59.2048866476 56.7383332259
49092 20 50.1491961283 60.295935952 54.385898473
49093 21 50.1110318522 58.1637876456 57.1972399378
49094 21 49.1279275835 61.5283240339 54.0570122114
49095 22 47.8218300665 58.554503776 57.1179181091
49096 22 49.2914353154 60.3430800578 57.5355737285
49097 22 51.0948844401 60.9041323322 55.2968834846
49098 22 50.6381291457 59.8169181633 53.0939254797
49099 23 49.2664601641 59.3071257499 55.1864128718
49100 24 52.9067521551 61.2465818781 55.612861241
49101 20 5.7123219436 13.7676968539 80.4119704237
49102 20 7.0747865997 12.0564032312 82.3564777061
49103 21 6.2997805295 13.0682055388 79.1723797702
49104 21 8.3679101337 11.5178753629 81.766521605
49105 22 5.7930468707 15.1685502819 80.1650251079
49106 22 4.4043723367 13.2082347577 80.4448029259
49107 22 7.3323580473 12.1778180115 83.8118648913
49108 22 6.1736981086 10.9595544534 82.107193893
49109 23 6.739099988 13.4340400579 81.5858960728
49110 24 9.4083824184 19.6380734186 84.7482927538
49111 20 93.3027965298 78.7157180157 95.5066899336
49112 20 91.3491223379 80.9185824808 95.6720684633
49113 21 93.0437845678 77.8755427025 94.2533489159
49114 21 90.2846383629 80.5405877757 94.5653979968
49115 22 92.8015162466 77.9592609062 96.5637842572
49116 22 94.7007502211 78.8306785434 95.487233636
49117 22 90.8133258345 80.2974775955 3.3338793589
49118 22 91.4126359248 82.3387986665 95.6691687267
49119 23 92.6295899244 80.15454864 95.2336469878
49120 24 92.0661056129 77.0853176918 4.44145155
49121 20 48.3296581421 59.3956144881 60.663547729
49122 20 48.4295587471 62.1857223974 61.3086923666
49123 21 48.4073897927 58.4812620403 61.9117440527
49124 21 49.5858988965 62.0636528379 62.3744859002
49125 22 49.6396843346 59.4942055346 60.0629280802
49126 22 47.3996845323 58.7260559386 59.8204726792
49127 22 49.1566443305 62.3897329026 60.1353279569
49128 22 47.6600995926 63.2218637851 61.8536557795
49129 23 47.7424146979 60.7408116801 61.2650092369
49130 24 52.1175560832 59.0622383117 52.177702234
49131 20 82.6963081351 47.6120200879 27.0322148299
49132 20 84.6919817386 46.0877875419 28.4356873749
49133 21 81.9291874778 48.506167919 28.0293500825
49134 21 84.9441652884 44.6106991017 27.8356289654
49135 22 81.7151682041 47.1916518117 26.0860588187
49136 22 83.6663168188 48.5090676557 26.4972601855
49137 22 85.7085732887 46.8914822971 27.8358160452
49138 22 84.7213532648 45.8073549446 29.8279351328
49139 23 83.2647500609 46.4225668167 27.9043807863
49140 24 86.8480762575 51.9897805903 25.1465441398
49141 20 46.8640751086 40.2333127589 10.6836117709
49142 20 48.5672494687 38.7811994699 12.3390807859
49143 21 45.9357852168 39.0462915248 10.5093469514
49144 21 47.9408128096 37.3320794575 12.2244757098
49145 22 46.8062674551 40.9399131058 9.4753008573
49146 22 46.172908844 40.9130671567 11.7948002142
49147 22 49.9700672344 38.5553006298 12.4220974404
49148 22 47.9983398434 39.3061453458 13.5620026306
49149 23 48.2432272816 39.5389661379 10.988533112
49150 24 48.7246771075 40.8352419662 14.6177873957
49151 20 52.7004031525 29.2172131756 53.730651527
49152 20 51.9566674684 28.2294319122 51.2264015287
49153 21 52.5668281862 30.6982302913 53.5840745156
49154 21 51.2277110872 29.461913534 50.6038000052
49155 22 53.7830338667 29.0955177756 54.6487455705
49156 22 51.4947674799 28.6225800798 54.2567198816
49157 22 52.5734695186 27.6101978248 50.1057000783
49158 22 50.8873194189 27.513571116 51.8297338344
49159 23 52.9925282364 28.7472687563 52.2329843104
49160 24 50.3967026835 27.4753133 53.5910900076
49161 20 30.3602706602 55.299221982 33.8540791797
49162 20 30.4184524732 52.7844019759 35.0385748367
49163 21 30.4525009941 55.0941825379 32.33312053
49164 21 31.0520917041 52.0460916055 33.7996389624
49165 22 31.708274049 55.5871377706 34.2460113287
49166 22 29.4765057572 56.4082309458 33.8829830065
49167 22 31.5174526686 53.1637997793 35.796060885
49168 22 29.4754768184 51.9053140675 35.6785747802
49169 23 29.7362660383 53.9758195848 34.4059645447
49170 24 93.9677716245 54.5979534089 36.5122023009
49171 20 89.5769155373 88.5259948466 39.358153526
49172 20 90.1753837686 88.3724958832 42.1461100178
49173 21 90.8897479265 89.1160444876 38.8314303921
49174 21 89.0021128987 87.8073278536 42.9629938977
49175 22 88.7361789847 89.6364069088 39.429430924
49176 22 89.0618848899 87.7240773494 38.297972386
49177 22 91.3087131044 87.7858136784 42.8275481336
49178 22 90.0477953554 89.7953311859 42.3359959993
49179 23 90.0155240925 87.8158399838 40.6962416862
49180 24 89.820493417 91.6824049744 42.1731430467
49181 20 92.1617969227 11.5193532932 74.2055985656
49182 20 92.0806042962 14.230812861 73.8536079507
49183 21 90.9060238678 11.6209563243 75.1798165446
49184 21 90.5803179626 14.0794653152 74.2827689768
49185 22 92.9821417787 10.5355194133 74.8613132111
49186 22 91.5922325182 11.1595333892 72.9630146355
49187 22 92.4232409219 15.3042766657 74.7080013275
49188 22 92.072934025 14.5466035376 72.469872323
49189 23 92.7673741859 12.9591380244 74.3567590317
49190 24 93.534588383 11.374357106 81.2105204848
49191 20 90.1327295777 81.3353962411 18.1006517478
49192 20 89.4508237624 83.6871762148 16.5485443139
49193 21 89.4062052337 80.0073168494 17.8569803282
49194 21 90.0428377411 84.8962728635 17.4085500842
49195 22 90.2752843736 81.367667504 19.5825107226
49196 22 91.3600665053 81.2331571388 17.3170680695
49197 22 90.3303793702 83.3505261422 15.493507868
49198 22 88.3100112351 84.1948172107 15.9300585456
49199 23 89.1505607079 82.4587168085 17.5562495743
49200 24 90.7210019607 77.2422776312 13.7630198593
49201 20 62.0614078804 67.8873529963 86.9644398835
49202 20 59.8005486821 66.6821850231 85.8063224762
49203 21 62.1155674781 67.6506970686 88.3949454574
49204 21 60.0082072431 66.9201505093 84.2410259175
49205 22 62.6170348411 69.2444297547 86.862387861
49206 22 62.8093528598 66.8876921666 86.3576466018
49207 22 60.1846234801 65.3264178233 86.0779623237
49208 22 58.3721009859 66.8753449009 85.9147352115
49209 23 60.5573799512 67.8195365743 86.5277021261
49210 24 57.1938725017 67.0548479543 87.3083860678
49211 20 60.8124632377 58.9549480552 87.2015635107
49212 20 59.9229924012 60.9213436724 85.358079312
49213 21 59.7665937012 57.7371521965 87.0170093031
49214 21 58.6150240863 60.9543632544 86.2146241064
49215 22 60.2457050298 59.7234718108 88.2721275787
49216 22 62.01837953 58.3344044093 87.5727298036
49217 22 60.5570993315 62.2454943886 85.4838904673
49218 22 59.3960821875 60.6747725161 84.0569394093
49219 23 60.8488502558 59.6957840027 85.7419670303
49220 24 60.1083884679 60.6150005249 90.0055153241
49221 20 87.4474798877 77.8361624078 76.840991493
49222 20 86.1274449267 80.164931568 76.0170921211
49223 21 86.2870239831 76.7536252335 76.778413305
49224 21 86.0733788689 81.5458609989 76.8159228018
49225 22 88.2791430707 77.4490943332 77.8934088219
49226 22 87.9856148884 77.7183956833 75.5524794757
49227 22 87.0193478004 80.4205760938 74.9234236996
49228 22 84.7469831953 80.0394945724 75.6441485703
49229 23 86.70683102 79.1920231476 77.1000034549
49230 24 88.3446209953 80.3757704854 73.5177997371
49231 20 94.8206683631 71.9920705528 9.2120889542
49232 20 3.7768216174 70.789241077 9.826683463
49233 21 93.5468421089 71.3865868296 9.8977363652
49234 21 3.309940162 69.3170167111 10.0005460609
49235 22 94.7824105471 71.3555315853 7.9312752701
49236 22 94.4984234339 73.347557133 9.2284584354
49237 22 4.3566856995 70.9225354236 8.5690209022
49238 22 4.7317713139 70.878758754 10.8439765624
49239 23 96.065123091 71.7201500857 10.1576463101
49240 24 21.785936427 39.2050287222 86.5698886176
49241 20 88.0530571508 90.4554422063 34.8398961053
49242 20 87.9065736794 92.3306364285 36.8732662854
49243 21 89.3943256674 90.3787394946 34.0505129537
49244 21 89.3897422127 92.203328635 37.5142951678
49245 22 87.1015693657 90.2042875953 33.8610946717
49246 22 88.1436973065 89.3817913218 35.7263736652
49247 22 87.5972372554 93.6989379739 36.9419245664
49248 22 87.0681756242 91.4812006659 37.6111089564
49249 23 88.0222825262 91.8961436284 35.4039416562
49250 24 86.9247789692 90.1442349844 39.062661006
49251 20 67.5261954719 74.5140931306 87.0386170182
49252 20 66.5309310172 71.975420452 87.4189502205
49253 21 68.2306444013 74.2636868388 85.7184885173
49254 21 66.942132384 71.9287440457 88.8737761664
49255 22 68.4348419863 74.4180276612 88.0667139751
49256 22 67.0065813698 75.8339410118 86.8874565521
49257 22 65.2609398986 71.3676917713 87.2711571906
49258 22 67.6044883618 71.3953795795 86.7098242965
49259 23 66.4470257337 73.5059201708 87.0991373285
49260 24 68.7343567216 69.6956661954 86.8127181781
49261 20 18.2582664664 85.321598754 61.4540533594
49262 20 20.8779446919 86.6368631805 61.580332214
49263 21 17.1265273088 86.3808444951 61.834105942
49264 21 20.7325836991 88.1158224186 61.5646175121
49265 22 18.4985704499 84.5338057806 62.5734452512
49266 22 17.7145190722 84.5730925354 60.3536500656
49267 22 20.8826216865 86.3150859508 62.9914750302
49268 22 22.1383012015 86.3564305832 60.9464123635
49269 23 19.4992602184 86.0991023393 60.9724164536
49270 24 20.319043835 84.7177987488 71.8594309855
49271 20 4.6714287293 17.8906546895 89.7987921619
49272 20 95.5874148607 18.148263553 88.6289822681
49273 21 4.6159969891 16.4157176667 90.1460122424
49274 21 94.5866315524 17.2912510592 89.3759918485
49275 22 5.3197069534 18.5241068405 90.9479297396
49276 22 5.4322354439 17.960622529 88.555179293
49277 22 94.7843748848 19.251940743 88.2226449757
49278 22 96.0395867004 17.3067786814 87.5858253885
49279 23 96.6949271863 18.4105494112 89.7136708599
49280 24 6.5573519771 18.3693918586 87.1919289018
49281 20 20.0829491467 75.9233651489 14.4683106477
49282 20 18.8398975171 75.0464286581 16.7527418989
49283 21 20.1949163979 74.9680422283 13.3134671366
49284 21 17.5888014568 74.9395125611 15.9126601256
49285 22 21.2937295134 76.670655349 14.4768227779
49286 22 18.9504616699 76.777571446 14.1817044175
49287 22 18.7573017922 73.9638914838 17.7012364074
49288 22 18.7950919087 76.317822875 17.4040601694
49289 23 19.9467550634 74.9199627236 15.7176294501
49290 24 17.6127476693 77.6705032584 13.1180623015
49291 20 33.7901914332 24.0209786151 52.9263019926
49292 20 35.7773529065 25.8281693355 51.8679916504
49293 21 34.5226087904 22.9468600311 53.7793858109
49294 21 35.1395043805 26.6425276383 50.7616018036
49295 22 32.6482564273 23.3554422809 52.3514058141
49296 22 33.4753361556 24.9766756953 53.909686881
49297 22 35.6783877004 26.7104376002 52.9955215129
49298 22 37.0955170697 25.5690638336 51.4078689199
49299 23 34.9047192507 24.5367575815 51.8558314644
49300 24 32.9589959497 19.0831947772 49.5605495857
49301 20 61.7057692097 28.4419545477 70.9925032631
49302 20 63.2682595717 26.6408439203 72.5158004102
49303 21 61.7751758098 27.9029776879 69.5347775805
49304 21 62.893445223 26.4919284116 74.0380686184
49305 22 62.7955089557 29.3470465461 71.0841723576
49306 22 60.3652490123 28.9021708181 71.1105506072
49307 22 63.7889026125 25.3206218795 72.2021611511
49308 22 64.3069265364 27.5923317054 72.4546253206
49309 23 61.9871372059 27.0668245901 71.7171568092
49310 24 64.6117730456 29.4797796534 71.891141009
49311 20 68.581044838 12.8639144139 84.8574538081
49312 20 67.0749590312 10.3653422871 84.9848551415
49313 21 70.0180982044 12.3605388372 85.3151445015
49314 21 68.1510419529 9.3033558272 85.4768749753
49315 22 68.3380281977 14.1905907073 85.4439489332
49316 22 68.7055464348 12.8406229807 83.4170330057
49317 22 65.8450029865 9.9953545969 85.5148521716
49318 22 67.1826234473 10.3689996969 83.6063577478
49319 23 67.5863416227 11.7826119662 85.539733783
49320 24 61.8121240673 13.0470655232 87.1554483437
49321 20 3.6535996464 80.9828443868 94.9250588829
49322 20 95.0667718199 81.4793541355 93.1758628958
49323 21 96.6359970541 80.8353319766 96.3496714436
49324 21 95.4989261226 82.1002719409 91.7920337282
49325 22 4.8922483532 81.6348174366 95.1978212091
49326 22 3.6376613841 79.6794595267 94.4181662063
49327 22 95.0886601547 80.0714852155 92.9594115849
49328 22 93.7578681061 82.0239433888 93.4656494823
49329 23 96.1901859271 81.9601491822 94.1882451508
49330 24 72.7423540295 5.3476847352 44.5941425407
49331 20 96.5740736454 41.6936575584 81.8798919545
49332 20 94.3641936884 41.7184456299 80.155390499
49333 21 95.9325770636 41.5540024991 83.3340631212
49334 21 93.034056419 42.5000649705 80.482967202
49335 22 4.2400414538 42.4733125612 82.1033587574
49336 22 3.2593459308 40.3392934569 81.4059253199
49337 22 94.6661404609 41.819188094 78.7891468312
49338 22 93.8979908648 40.4787614364 80.6396465217
49339 23 95.4356931553 42.3780889508 81.0583310799
49340 24 64.0481016543 34.1294606228 61.8775084521
49341 20 88.170262636 50.5978134521 22.6021655277
49342 20 87.2956646424 48.3276938044 24.1540858819
49343 21 89.7136708599 50.875907552 22.7171260555
49344 21 88.4576171853 48.0295821674 25.2161378197
49345 22 87.7114494639 51.3657759683 23.7019140422
49346 22 87.7256675276 51.013224114 21.3214173216
49347 22 86.3860827291 49.1126805811 24.8857549199
49348 22 86.8226334067 47.0018593701 23.8084559796
49349 23 87.9305198918 49.0780708209 22.8749278539
49350 24 85.5372082059 54.0472840626 27.4132963514
49351 20 64.4486394734 82.5534727194 20.5704790657
49352 20 65.5170521239 81.3155657839 22.909537614
49353 21 64.8665757124 84.0448727632 21.0538932294
49354 21 67.0496097203 81.6452003646 23.105129529
49355 22 63.0208465564 82.5120345471 20.7690642572
49356 22 64.8344915293 82.410450224 19.2256560332
49357 22 64.9006242332 82.3223356454 23.6963951886
49358 22 65.3824482188 80.0012367564 23.4067021419
49359 23 65.3569118282 81.5507250733 21.3443345952
49360 24 57.4789820936 76.0112926478 24.7281402013
49361 20 30.5234977724 73.7819563931 93.2253454989
49362 20 33.2483148368 73.6921580965 93.9844217254
49363 21 29.8588968371 72.5821201938 92.4963891177
49364 21 33.0845264853 74.7309186011 95.1582538346
49365 22 30.798411516 74.8453178895 92.314547567
49366 22 29.5940854019 74.0839031657 94.2535359957
49367 22 34.1456430242 72.7242072903 94.563527199
49368 22 33.8202177387 74.3649905422 92.9033811894
49369 23 31.7813287049 73.129422104 93.9353132819
49370 24 35.9851050075 72.6273935017 94.3390314573
49371 20 96.0213464214 16.2065624674 81.2506490986
49372 20 3.9305432057 17.0939754262 83.4102981334
49373 21 94.8599551179 17.2295147303 80.9038967177
49374 21 3.910620144 18.5507657099 82.9623355889
49375 22 95.3859299326 15.027679204 80.9697488019
49376 22 3.5895538175 16.5204823462 80.435168317
49377 22 3.7582848169 17.1230663328 84.8397747685
49378 22 5.2257648395 16.6112160418 83.0357644044
49379 23 96.1804577783 16.4414411371 82.7831131552
49380 24 3.243591568 16.2871003147 86.3321102112
49381 20 20.9133963111 47.1325345997 56.8861262558
49382 20 21.8934137633 45.1076765498 58.7264300981
49383 21 21.9752611691 48.3569717907 56.8699438545
49384 21 22.5078773162 46.1352122673 59.6551876894
49385 22 19.9041944124 47.512867802 57.8268569533
49386 22 20.4855448434 47.2180300613 55.5413032234
49387 22 20.6505492135 44.757276113 59.3547375551
49388 22 22.9549044618 44.0800472923 58.6634777506
49389 23 21.725135497 45.8373812501 57.266646538
49390 24 14.481967472 47.1156974191 55.8352991051
49391 20 31.4305541086 19.8617273013 52.1147498865
49392 20 29.8400953188 19.7039255029 49.6322011432
49393 21 31.3548803357 18.3430136089 52.6163107893
49394 21 29.4357223641 21.142849667 49.14831928
49395 22 31.3121326048 20.6489590354 53.3180470618
49396 22 32.6280518106 19.9664919807 51.3972053722
49397 22 30.9453626869 19.3715782653 48.7810816626
49398 22 28.6565350607 19.0051825069 49.5265010649
49399 23 30.1299754452 19.9273923057 51.1714936119
49400 24 31.3361723572 17.9856912201 47.5124001026
49401 20 14.5963667603 77.20860327 14.2469952624
49402 20 14.2570040309 76.6210792061 17.0384127302
49403 21 13.8867731369 76.1856510071 13.3001844719
49404 21 13.3941920637 75.3970161746 17.2569219187
49405 22 15.8444695441 77.5627453024 13.6467497731
49406 22 13.7330870937 78.3823418393 14.3756126144
49407 22 15.2624643338 76.5065863778 18.0390089587
49408 22 13.2738062223 77.7106318723 17.1661882231
49409 23 14.7725023776 76.3810558423 15.5735780158
49410 24 17.2237152569 77.0003834696 18.282960998
49411 20 15.5481351651 34.3314132504 12.232089857
49412 20 18.0028090204 33.9446257955 10.8813176874
49413 21 14.4711168445 34.6518809217 11.1367564254
49414 21 17.4877783731 33.813857026 9.3583759919
49415 22 15.160599391 35.0364234192 13.3791321411
49416 22 15.4659135997 32.9313081416 12.4716735833
49417 22 19.1613005873 34.7233453994 10.7386506436
49418 22 18.1703389676 32.6010187817 11.3026681325
49419 23 16.9454340772 34.8118341376 11.5828855881
49420 24 18.4512392644 30.9762308514 12.1502798671
49421 20 31.2735941692 19.6788568117 44.8653146887
49422 20 33.5268766363 19.701212846 46.5602575382
49423 21 30.1730973356 20.1066147395 45.8594566647
49424 21 34.9268882052 19.200680882 46.0476589281
49425 22 30.6161958057 18.7850831402 44.0086763544
49426 22 31.7292269849 20.838751477 44.1908920647
49427 22 33.5720564043 21.1492103797 46.379725546
49428 22 33.5250058384 19.3136770719 47.8885240097
49429 23 32.3472450537 19.0171556132 45.83747479
49430 24 38.5240583058 24.932618406 52.3146446364
49431 20 10.7218695869 18.6598332243 61.6713465293
49432 20 9.3870366149 20.9945889376 60.7759826796
49433 21 12.1068399411 18.4114848101 61.1349887865
49434 21 8.5271618004 21.3878306451 62.0803029387
49435 22 9.8589640798 17.8957993835 60.8207882881
49436 22 10.7203542406 18.2069130655 63.0513405613
49437 22 9.7086454728 22.2160328521 60.178636927
49438 22 8.5193138034 20.0750917957 59.9955793577
49439 23 10.5708120147 20.1934197596 61.4659329257
49440 24 8.0471150728 14.7386409366 56.8835071389
49441 20 48.4832506454 31.1088704187 76.8278959081
49442 20 47.2885591401 28.5965759897 76.1783548955
49443 21 48.7402982696 31.2628370816 78.3460483611
49444 21 47.0475068375 27.7888590192 77.5185009334
49445 22 47.2407602551 31.8068650955 76.6440900196
49446 22 49.5678456973 31.6822699589 76.1879895044
49447 22 45.9783458679 29.1410717032 76.1029617423
49448 22 47.5727333331 27.6574354704 75.1404362499
49449 23 48.4285298083 29.5710745883 76.5375480822
49450 24 50.8510259407 32.6247779143 75.2702696205
49451 20 76.5378287019 50.3912773697 61.4372161787
49452 20 74.6843357347 52.5310024075 61.5087741964
49453 21 77.9077204255 50.2747266638 62.1555090122
49454 21 73.6322925654 51.770990782 62.4116212374
49455 22 76.839214235 50.3838877182 60.0441265618
49456 22 75.7245928777 49.3306285303 61.8709606596
49457 22 74.6995827372 53.9270853009 61.9322292891
49458 22 74.217478132 52.4507451798 60.1356085765
49459 23 76.0750868544 51.8027008055 61.8482304658
49460 24 73.8941107241 47.2701317813 55.6173511559
49461 20 41.7345344914 77.4127073151 7.7787397676
49462 20 41.4256657668 79.1894040306 5.6609872506
49463 21 40.3104831701 76.8869195801 8.1627023178
49464 21 39.9009655213 79.379383552 5.6054152006
49465 22 41.9967268097 78.5152620263 8.6874891759
49466 22 42.5976270782 76.3022952529 8.0552904594
49467 22 41.9723128978 80.2585650003 6.451483527
49468 22 41.8276066843 79.3029614599 4.3372761719
49469 23 41.6382819421 77.7842477676 6.2831491367
49470 24 44.4457882714 76.2208220066 7.1566152975
49471 20 17.0747997483 44.055072141 58.4981927608
49472 20 14.4427742571 44.7487639828 58.0232907273
49473 21 17.2664629877 42.9212751057 57.3685114807
49474 21 13.5894098191 43.5368611374 57.5666289728
49475 22 17.9186231173 43.6384454605 59.5818524138
49476 22 17.5247266306 45.259585335 57.8472486498
49477 22 13.6249549782 45.5252386293 58.9179997977
49478 22 14.7897137178 45.4468521995 56.8532937536
49479 23 15.5761971328 44.059468516 58.8382102695
49480 24 13.1640839285 47.2146626252 59.2607299633
49481 20 87.9640071733 77.9075333457 71.7027516658
49482 20 86.5539868359 80.2285386948 70.9425529606
49483 21 89.0693680813 77.9745079086 70.5815825159
49484 21 87.161341357 80.5192606803 69.4556428316
49485 22 87.6974184801 76.5000385853 71.8913280888
49486 22 88.5078481075 78.4727013753 72.9045522028
49487 22 85.1688481098 80.5817453284 70.9188873678
49488 22 87.3577751309 80.9701229614 71.8204248504
49489 23 86.7693156681 78.6757764816 71.0878204134
49490 24 46.0890035605 28.0924895098 63.4175492399
49491 20 47.0865129726 73.1263352876 10.458489312
49492 20 44.9847651312 75.1888899141 10.0519462318
49493 21 46.4934700551 71.8213602493 10.9340554787
49494 21 43.7493837728 74.214859015 10.1119333647
49495 22 48.2399533853 73.3118248941 11.210989684
49496 22 47.2447824705 73.0610444427 8.9996317967
49497 22 44.5771182803 76.3572031697 10.7798923821
49498 22 45.162210307 75.3837335099 8.6352097301
49499 23 46.0995735684 74.3048443914 10.7718573053
49500 24 50.8379303557 78.0281998068 13.4151449996
49501 20 28.5126707063 5.4396999273 25.3708528017
49502 20 28.6153775081 8.1446491186 26.0218904525
49503 21 29.3351669798 5.3499296926 24.0507243008
49504 21 30.1347459797 7.8955430312 26.361253182
49505 22 27.4152606891 4.5399397027 25.286292739
49506 22 29.3950325109 5.1694912402 26.4474034229
49507 22 28.6237960984 9.2486630521 25.1167984541
49508 22 27.9774354422 8.4428168795 27.237254274
49509 23 28.0089583859 6.9089777865 25.2095900273
49510 24 26.2517179681 92.2811538254 26.1349801824
49511 20 39.9023686197 47.8004094311 32.7908112233
49512 20 39.742228324 48.4570594755 35.4981363278
49513 21 38.639486533 46.9812805937 32.3911152632
49514 21 38.3427779944 48.1248993177 35.9291681518
49515 22 40.9308397362 47.2007251812 32.0205102097
49516 22 39.5573934967 49.1562701709 32.5034566739
49517 22 40.5435845818 48.16633749 36.6348330998
49518 22 39.6271742564 49.8117977366 35.1798200741
49519 23 40.152400752 47.5793746655 34.3414220189
49520 24 45.3696817883 51.6920431129 33.085648964
49521 20 94.9559270474 15.6028560021 68.7942222527
49522 20 93.1126299286 13.436565635 69.3030792672
49523 21 96.308513891 14.9628560586 68.6952570466
49524 21 91.7005517135 14.0729175227 69.1820386465
49525 22 95.3231646648 16.7728529758 69.4466630019
49526 22 94.5468770981 15.9168694208 67.4299429227
49527 22 93.5117646493 12.8233181007 68.069194547
49528 22 93.0136647225 12.6019091754 70.3681244816
49529 23 94.0094904165 14.6857908974 69.7038977059
49530 24 93.8033284938 6.590483807 71.2253240552
49531 20 93.4866959581 16.4764250569 63.2739655051
49532 20 91.8091515285 14.9172085911 64.9597414452
49533 21 92.5907708691 17.5190206971 62.6048746551
49534 21 90.2729458763 15.0225345099 64.7741582988
49535 22 94.525269383 16.2172260151 62.2982508879
49536 22 93.9519633827 17.0308359989 64.4952223398
49537 22 91.9633052712 13.5615349312 65.2515859094
49538 22 92.1092275032 15.7914324251 66.0585545608
49539 23 92.4621535171 15.2914617005 63.5623489933
49540 24 3.4288971816 19.2825282878 64.7395485386
49541 20 7.6425924543 69.9925618138 89.8695083206
49542 20 6.2508311039 67.5494869051 89.6237790233
49543 21 9.0600117972 70.2546605921 89.2316597946
49544 21 7.481264202 66.597157261 89.9239485379
49545 22 7.8206456394 69.6448740339 91.2468832356
49546 22 6.8743867343 71.2129767894 89.6877603097
49547 22 5.5502079561 67.6828747916 90.7991077708
49548 22 5.592020288 67.0161224389 88.4853985333
49549 23 6.9090058485 68.9073119826 89.062726749
49550 24 3.8577336243 66.9866573728 91.4709112778
49551 20 17.2456971316 47.1019470549 60.5295986032
49552 20 15.8845981579 48.6190705691 58.6265294931
49553 21 17.6295848499 48.1546450035 61.5628402542
49554 21 16.1979567973 50.1779128752 58.7833023527
49555 22 18.4393596981 46.2913303477 60.5739365121
49556 22 16.0675621874 46.5108684751 61.0376137586
49557 22 15.70032457 48.3847531387 57.2371814719
49558 22 14.684387799 48.2297575371 59.3310719623
49559 23 17.2018269221 47.9158376583 59.1447404968
49560 24 14.9636979176 48.3686642772 52.0245774302
49561 20 23.4304612746 85.3971789871 71.6759057167
49562 20 25.3440068526 84.6376350611 69.6898667221
49563 21 22.9480760497 86.8013063113 71.1865985397
49564 21 26.0834397017 83.4055275989 70.3004015995
49565 22 24.5427441346 85.5699471682 72.5218805032
49566 22 22.2179971898 84.9256443897 72.28999511
49567 22 25.2750679519 84.2539344226 68.2978995839
49568 22 26.1666902059 85.7690935991 69.9881654388
49569 23 23.9280935019 84.691607579 70.3839327234
49570 24 21.7094207951 86.5169450385 64.6707967177
49571 20 64.9417817859 6.3833677774 85.373794014
49572 20 65.2757192016 6.9454115746 82.6194183435
49573 21 63.9846816073 5.1442261153 85.6033409098
49574 21 63.7161285763 6.8187024364 82.3994125167
49575 22 64.132661717 7.5559183901 85.4225282979
49576 22 65.8992561241 6.3250175925 86.4176056728
49577 22 65.4972216667 8.3536265921 82.5342035016
49578 22 65.8762453106 6.2390263695 81.4801024546
49579 23 65.5493233868 6.1044879423 83.9384243657
49580 24 57.9014082475 10.2115533501 94.8166461477
49581 20 77.1353615343 47.1057821905 25.5436209829
49582 20 75.1337013776 45.4685534545 26.8528988563
49583 21 76.6314621341 48.5856768275 25.1850825755
49584 21 73.8683872537 46.3539085357 27.3550209984
49585 22 76.9138590691 46.3245370095 24.3887774718
49586 22 78.5532392226 47.2559137177 25.9552900492
49587 22 74.861406751 44.9825201738 25.5451176212
49588 22 75.2896323782 44.4423272954 27.7474208469
49589 23 76.2534674291 46.5997313728 26.7788152615
49590 24 75.7552739624 42.7537451585 27.3900049182
49591 20 83.7492867033 69.10075248 60.993743549
49592 20 82.044615705 68.5247338228 63.1017585633
49593 21 83.5728704664 67.7640674182 60.1357021164
49594 21 83.1268722596 69.1021555784 64.0458566969
49595 22 84.9522097191 68.9323806737 61.8161462827
49596 22 83.8833293691 70.1827284149 60.0373916896
49597 22 80.834115958 68.9757831838 63.6236176227
49598 22 82.3224291853 67.124628714 63.0361870987
49599 23 82.3706022299 69.2264700953 61.7902357325
49600 24 83.5805407375 71.4823716794 54.9004614208
49601 20 91.3557636703 75.6135610254 16.4279713926
49602 20 93.2256261186 77.5691060151 17.524352471
49603 21 90.1155182375 76.1892990629 17.2730107802
49604 21 93.2598617192 77.7162442658 19.076366365
49605 22 91.1638198112 74.2073758236 16.5245981014
49606 22 91.1698999042 76.1663817893 15.119815998
49607 22 94.6196511344 77.6132568443 17.2048201987
49608 22 92.437926685 78.725820324 17.2138935682
49609 23 92.5994700791 76.1588985979 17.1660946832
49610 24 62.229499067 16.4895206418 16.9358930081
49611 20 58.3286049359 17.3523326089 14.5162966125
49612 20 59.6948486037 17.5752381724 16.9967874781
49613 21 59.3507153397 16.0358521639 14.3626105693
49614 21 58.5777016693 17.3485910132 18.0854047454
49615 22 58.5410340315 18.1766996803 13.3538763701
49616 22 57.0329838868 16.7517129601 14.6857908974
49617 22 60.3654360921 16.340792213 16.8735954398
49618 22 60.5221154118 18.6285909003 17.5163080402
49619 23 58.8019167913 18.1281524762 15.7720696674
49620 24 35.2453915387 23.9091984437 59.2242494053
49621 20 43.77791344 20.1358927258 72.8043709781
49622 20 43.2064782376 20.7969391451 70.1533568887
49623 21 43.3832686341 21.4833348752 73.4053647865
49624 21 41.7790594801 21.4063515438 69.9785308299
49625 22 45.1714707564 20.3132443617 72.6015764915
49626 22 43.4012282934 19.2131216877 73.8213366878
49627 22 44.11680847 21.8982778377 70.3470780058
49628 22 43.3921549239 20.0015694404 68.9915914256
49629 23 42.9360544087 19.9658372015 71.4478554591
49630 24 45.8118448595 31.2218666087 75.3641836724
49631 20 61.4871664812 77.0428505807 72.3567825932
49632 20 62.8958772602 78.1018157021 74.6764783838
49633 21 60.0967895212 77.8482290539 72.1856045901
49634 21 61.5245824382 78.6344318492 75.3050664604
49635 22 61.1998119319 75.8180392301 73.0441137222
49636 22 61.9226882201 76.9051598592 71.0045699092
49637 22 63.2107325379 76.8538999981 75.3499656088
49638 22 63.8556900957 79.1327188558 74.963926473
49639 23 62.4553979071 78.0074339507 73.1293285642
49640 24 62.1632728232 74.381734183 72.4478904483
49641 20 55.8038697012 68.9456633385 17.1798450474
49642 20 55.5796545793 70.0229622788 19.813273637
49643 21 56.2150710681 70.0459730923 16.185235372
49644 21 56.1495931434 71.4438332437 20.0338407032
49645 22 54.8189881746 68.1858387928 16.502429147
49646 22 57.0530014238 68.2281188242 17.4853463359
49647 22 54.429300983 69.9934972127 20.722294311
49648 22 56.6735100805 69.1239503733 20.1108240346
49649 23 55.2455300837 69.8520648954 18.2918472878
49650 24 57.5363220476 67.5013138605 19.1102278061
49651 20 68.5352102908 37.4847365618 45.4260863434
49652 20 70.6761513471 37.1727810208 43.7615439588
49653 21 67.1799107904 36.8853329315 45.1632392458
49654 21 70.690182331 35.5872798453 44.059468516
49655 22 68.2723631933 38.7277881914 46.0302605081
49656 22 69.1847513033 36.517346995 46.3391292327
49657 22 71.0388055098 37.3517228349 42.3990418867
49658 22 71.599109465 37.7795743025 44.7448353073
49659 23 69.1770810322 37.5327225266 44.0271037132
49660 24 68.9038510066 40.5770718633 46.1319383711
49661 20 63.5746027192 35.5612757552 64.8821033346
49662 20 64.3185254831 37.9779724142 63.4788178694
49663 21 64.6064412718 35.3017960938 66.0077623992
49664 21 65.8655817628 37.6360841076 63.5060379781
49665 22 64.0959940792 34.7891039438 63.8211738754
49666 22 62.3362280842 35.1890805235 65.4328662208
49667 22 63.8676632019 37.4801531071 62.2201450778
49668 22 64.1573562486 39.3807901799 63.5827406898
49669 23 63.7548540917 37.1326524069 64.6835181431
49670 24 58.3868802889 35.7489167793 62.1024718932