ITEM: TIMESTEP
15250000
ITEM: NUMBER OF ATOMS
4000
ITEM: BOX BOUNDS pp pp pp
3.23005382 96.76994618
3.23005382 96.76994618
3.23005382 96.76994618
ITEM: ATOMS id type x y z
49081 20 31.8611182331 30.3626091575 8.966378365
49082 20 29.7618959688 29.0931792783 7.5121323664
49083 21 32.2450994912 31.5080051394 7.9816652101
49084 21 30.131846243 29.7099813285 6.2155197945
49085 22 32.8185925713 29.3104724482 8.6895002836
49086 22 32.0119980795 30.8889581318 10.3279824541
49087 22 30.2946056558 27.7606099717 7.4502931436
49088 22 28.3483211154 29.1796101388 7.6433220655
49089 23 30.3338924105 30.0497182176 8.6311875147
49090 24 24.8428201093 32.9615215268 11.0262390426
49091 20 45.2772643746 64.1841086578 56.0172341957
49092 20 47.5097809856 65.1729188599 57.5985260761
49093 21 45.4739787683 64.9368241716 54.6814845328
49094 21 47.3838762905 64.7643366101 59.1044248032
49095 22 43.8389014498 64.0799987576 56.2069330974
49096 22 45.9806843652 62.9679965172 55.7903999567
49097 22 48.4067350134 64.262120928 56.977234111
49098 22 47.8982521585 66.5465521792 57.6756964873
49099 23 46.0007019021 65.1559881394 57.0133405095
49100 24 50.0869920999 63.413059325 56.3698795899
49101 20 7.6931320582 10.4514457581 78.8374134156
49102 20 9.0116236109 9.2408431171 80.9589917143
49103 21 7.3733846441 9.1768898927 78.0362442376
49104 21 9.6382286419 7.8866193255 80.4024293547
49105 22 7.9543983315 11.4055713681 77.8186704479
49106 22 6.5550976657 10.8090113506 79.5984539799
49107 22 9.9209716745 9.6625209519 82.0033646125
49108 22 7.7349256821 8.817724768 81.4351097664
49109 23 9.0372909574 10.1524080762 79.686100859
49110 24 13.4896962938 14.778301851 77.8363494876
49111 20 95.8523198359 77.1411610076 6.1257027899
49112 20 92.9337816544 77.2679075617 6.1979530027
49113 21 96.5765992225 75.794747797 6.0024078577
49114 21 92.9868187734 76.2824647957 7.312630484
49115 22 95.8980608433 77.4537713278 7.4744919138
49116 22 96.6372130727 77.9931223472 5.2827119259
49117 22 92.6728988946 78.496460508 6.8902043301
49118 22 92.0045563637 76.8150809428 5.2741249638
49119 23 94.3767280339 77.0566944848 5.4869749889
49120 24 95.6717878437 77.8639437558 9.2632926913
49121 20 46.9450806554 62.03568441 60.0646117982
49122 20 44.3847067217 61.5705105253 59.2504405751
49123 21 47.23655096 60.6067690144 60.65400666
49124 21 43.7630405971 60.2735799178 59.9430099382
49125 22 47.6059399949 62.8555615666 61.0131063068
49126 22 47.458988824 61.8763859734 58.7290492151
49127 22 43.3097462787 62.53107168 59.0002213631
49128 22 44.9739145037 61.1044947816 58.0369475515
49129 23 45.4391819283 62.1111711032 60.230832187
49130 24 49.9238585276 67.2713928051 56.386342611
49131 20 87.1134489321 41.0564638117 20.7333320183
49132 20 85.0777402546 40.0740143222 22.2843169735
49133 21 88.3760503992 41.2614097158 21.6320633041
49134 21 83.9431013603 40.0274314558 21.1085205265
49135 22 86.4364071912 42.2904420717 20.7785117863
49136 22 87.6052816861 40.6206614532 19.453519211
49137 22 84.8860770152 38.9702435924 23.1968921634
49138 22 84.8256502447 41.4065836288 22.8101047085
49139 23 86.3541856258 39.8868409976 21.414021815
49140 24 87.4746999964 35.2350086106 15.3310290749
49141 20 42.5176504702 46.3909503331 5.9702394888
49142 20 42.9113598772 44.0004448439 7.2003919672
49143 21 41.2478464314 47.1023212145 6.5419553109
49144 21 41.6829004708 43.6362940429 8.107794401
49145 22 42.4488986493 46.8058932956 4.5981308697
49146 22 43.5845664825 46.8885825604 6.7697249488
49147 22 43.2800941328 42.70033388 6.8182908609
49148 22 43.8703308536 44.5221168236 8.1821773234
49149 23 42.2308571602 44.8772877949 6.0853309723
49150 24 45.4589188456 45.2987785499 7.6377845038
49151 20 34.544684205 46.3781353678 52.7961880023
49152 20 36.5125764605 44.9810235355 51.2972112272
49153 21 33.4508287038 47.0548029491 51.9885645717
49154 21 35.6349851904 44.3116520658 50.2411458425
49155 22 34.8269876002 47.3169017275 53.834013108
49156 22 34.0281569194 45.097013002 53.2045831723
49157 22 37.7793872227 45.2637010902 50.620450106
49158 22 36.6703782589 43.942169491 52.241122281
49159 23 35.7088817053 46.2731836086 51.7665944071
49160 24 35.0284725283 43.6143121682 53.6972577854
49161 20 44.1647944348 44.2255018249 37.7429066647
49162 20 41.8567911307 45.8130608781 37.9379373403
49163 21 44.4672089068 43.1953469904 38.814125512
49164 21 41.5773874722 46.0077173941 39.470214317
49165 22 44.9521197088 45.3071036003 38.1518630741
49166 22 44.5229586826 43.6925115183 36.5042514101
49167 22 42.6458001227 46.9815612134 37.5792118531
49168 22 40.5708046905 45.7247592197 37.3136520987
49169 23 42.5607723606 44.4019180619 37.9169844044
49170 24 88.5913792314 28.4912500709 24.1718584614
49171 20 72.415993345 90.0129985154 32.9373882346
49172 20 73.7778406379 88.4499469141 34.7887297842
49173 21 73.3423188991 90.7692685452 31.9419367001
49174 21 72.4660371874 87.6703854512 35.3949618266
49175 22 71.8918893281 90.9605576251 33.924234099
49176 22 71.3904219652 89.5376287825 32.094967964
49177 22 74.8539235596 87.5649659925 34.8099633398
49178 22 73.9409742102 89.503299642 35.7303023407
49179 23 73.3113571947 88.8133493959 33.3614981066
49180 24 74.03666552 90.126368865 37.5325354468
49181 20 92.0372017861 10.9940332577 78.944890752
49182 20 92.6892683758 12.3166125037 76.4503689025
49183 21 91.1311743887 12.0146470232 79.6926486515
49184 21 92.58132334 13.7071765436 77.1334907364
49185 22 93.3541499307 11.1812907682 79.482745133
49186 22 91.4913965142 9.7598959799 79.3433706934
49187 22 94.0494319506 11.9472795927 76.281342317
49188 22 91.9997858292 12.5073684062 75.2214417967
49189 23 91.8427323499 11.319608207 77.4145781129
49190 24 95.5551435979 12.1546668881 85.3702394981
49191 20 90.4599321211 89.3859070771 18.931285992
49192 20 90.1157988572 91.9230831174 20.1599324781
49193 21 89.1967694147 89.0034224572 18.0543495011
49194 21 88.7526420058 92.5153777159 19.7613589968
49195 22 90.7970498932 88.1717592742 19.4689532933
49196 22 91.4152550418 89.924790397 17.9981320258
49197 22 90.2613469297 92.2271813075 21.569578656
49198 22 91.0392246745 92.6118173449 19.3464160343
49199 23 89.9714668032 90.3561028406 20.0710695804
49200 24 93.1106655908 83.4151622078 16.9672288721
49201 20 65.1308259083 69.0773675069 80.8100762056
49202 20 63.9714924824 68.1681597532 83.1828091152
49203 21 64.9002500737 67.9007292009 79.8030257245
49204 21 63.5100601934 69.5733160162 83.6540630929
49205 22 66.3941756946 69.652544305 80.3256331031
49206 22 63.9749534585 69.8399982493 80.6270186363
49207 22 62.8024309077 67.6867099272 82.599026647
49208 22 64.4244126412 67.538262118 84.3746008838
49209 23 65.1710480621 68.5071483231 82.2127068916
49210 24 64.1344389749 66.2679903798 85.7308357831
49211 20 57.635942033 68.4962041557 79.8873051675
49212 20 59.8911888378 70.0217462602 80.6806169946
49213 21 56.5821216057 69.636081284 79.7382025791
49214 21 59.0821623088 71.1677034815 81.1897546287
49215 22 57.5324869121 68.0290659332 81.2480299816
49216 22 57.4266932938 67.4868151772 78.8964370877
49217 22 60.1910777327 69.2825940307 81.8221778409
49218 22 61.0614664311 70.5327546921 80.060634588
49219 23 58.9777717889 69.2838100493 79.5959284028
49220 24 57.3136971038 66.2732286137 82.1774423521
49221 20 90.4132557149 74.9606525768 70.76052433
49222 20 90.8792714586 77.3815585309 69.6778936159
49223 21 89.2124841166 74.5944438982 71.6625295121
49224 21 89.5541853434 77.597916302 69.0211500316
49225 22 91.5082336948 74.1891355446 71.3354205085
49226 22 90.0400315443 74.5321463299 69.4338480367
49227 22 91.300388054 78.7348001537 69.9846109229
49228 22 91.7075672054 76.7626986031 68.6961924455
49229 23 90.5406570483 76.5097667341 70.8730528205
49230 24 91.7822120395 75.8379632272 67.1473589078
49231 20 6.5336396144 79.8808509149 13.9854577233
49232 20 7.2585644262 80.9647911876 16.4122566907
49233 21 5.631129317 78.6793309975 14.408070957
49234 21 8.1049694962 82.263592593 16.1832710342
49235 22 7.8667140364 79.3183020023 13.7727480081
49236 22 5.8837525043 80.2508011892 12.7800091305
49237 22 6.582645164 81.2536423752 17.6061998768
49238 22 8.2869232949 79.9954372831 16.5665039732
49239 23 6.3021470888 80.8848145796 15.1622831091
49240 24 17.8384594295 54.7802626591 88.8213002868
49241 20 69.3494750538 93.5610601726 30.6175989041
49242 20 70.2214539304 94.7843748848 33.0756401955
49243 21 70.5981390769 93.7856494541 29.7127875253
49244 21 71.658226677 95.2023111239 32.7990427338
49245 22 68.2790980655 93.7617967816 29.7163420412
49246 22 69.4815533818 92.2294262649 31.0790311931
49247 22 69.7119421367 95.9186396196 33.7961779864
49248 22 70.2366073929 93.5883738211 33.8656781264
49249 23 69.4626583235 94.6626794849 31.7433515086
49250 24 70.344271809 91.9042815991 34.7493494895
49251 20 74.7364374548 61.6749945851 75.4063701639
49252 20 72.3131930033 63.0390868354 76.2993955162
49253 21 74.8467209879 61.9127729915 73.8396705067
49254 21 72.2334034751 63.4405600534 77.7313041885
49255 22 74.0430262327 60.450650934 75.5448092046
49256 22 76.0989395269 61.642068543 75.7840842492
49257 22 71.5884459173 64.0376251863 75.5858732173
49258 22 71.6640261503 61.7556259723 76.2394364452
49259 23 73.8904626683 62.9374089724 75.9178462953
49260 24 69.6669494484 61.7511360575 76.0085799909
49261 20 17.0261590043 84.7989913754 61.0508964233
49262 20 19.1507305794 86.4900055495 61.7120363825
49263 21 15.6572962195 85.6343961541 61.2394728463
49264 21 18.5239197607 87.9125602325 61.8168010619
49265 22 17.174980973 84.0914556296 62.2903935369
49266 22 16.7473165852 83.8472229707 60.0118552989
49267 22 19.2142441664 85.9840482717 63.1054066191
49268 22 20.3969625654 86.6124492686 60.9856055784
49269 23 18.1365710665 85.8886375815 60.7532524858
49270 24 19.0073339245 82.416530317 71.3209218252
49271 20 13.1957004121 17.5371674362 83.9662992536
49272 20 10.6686547421 17.9461238456 85.1563137642
49273 21 13.5059722351 16.4523853045 85.0449077524
49274 21 10.7312329301 18.1546242657 86.7787631972
49275 22 14.3149052242 18.3623763666 83.8510581062
49276 22 12.8337945686 16.7833294437 82.8365244337
49277 22 9.7340789696 18.9035046439 84.6953491747
49278 22 10.3330523163 16.6227214485 84.806287487
49279 23 12.0550749647 18.3745365526 84.6031188408
49280 24 12.7917951569 15.8301579406 81.4098539954
49281 20 18.7592661299 64.7413257966 28.3710513093
49282 20 17.146357766 66.6655349223 27.0107941946
49283 21 19.9832356215 65.5304283285 28.7830009952
49284 21 17.7803711564 68.1091360811 27.3056319353
49285 22 19.139786412 64.2297561252 27.0595284785
49286 22 18.6092281426 63.7070552067 29.3356346793
49287 22 17.7197573061 66.3427287538 25.7580144162
49288 22 15.7154780325 66.8232431808 26.9940505538
49289 23 17.6337006052 65.834994218 28.2950033768
49290 24 14.7030022376 65.7754093066 25.6791602869
49291 20 24.5619198126 30.8341437549 46.4000237026
49292 20 22.1412009382 30.1574761736 47.5236248896
49293 21 23.9901104506 30.7765231812 44.9168551694
49294 21 20.747456542 30.8460233212 47.2811694886
49295 22 25.1042641085 29.5975463779 46.7362996156
49296 22 25.4666376515 31.9540033462 46.3716811152
49297 22 21.9646911613 29.0130155905 46.7405089108
49298 22 22.1576639593 29.975447543 48.9941655374
49299 23 23.2416977718 31.1408610619 47.0655600368
49300 24 21.5523673158 27.532653254 45.7485183523
49301 20 58.7671199513 42.9519561904 77.7660074885
49302 20 59.7526562572 41.5137803454 80.1180680819
49303 21 58.6149305464 41.8045023309 76.6480186951
49304 21 60.7017120051 42.7266185897 80.5053232363
49305 22 60.0933285452 43.5269459088 77.583978858
49306 22 57.6666231177 43.8202870112 77.596980903
49307 22 59.1528784674 41.1091267711 81.3593424536
49308 22 60.7298675127 40.547793877 79.6469076441
49309 23 58.7119314148 42.112903356 79.1085855636
49310 24 60.9100253454 38.8303079134 79.1946422646
49311 20 58.9555092945 9.5513020199 81.8944841777
49312 20 61.3497563794 9.9110377379 83.1576468842
49313 21 58.841297086 8.0173226171 82.4351447556
49314 21 61.6036236472 8.446661369 83.7343203206
49315 22 58.2931533167 9.4882187165 80.6197225247
49316 22 58.3130773138 10.3134837708 82.903218377
49317 22 62.6112353677 10.518448383 82.8643057817
49318 22 60.5999406022 10.528859373 84.2442998137
49319 23 60.5353980765 9.7687635616 81.8136657107
49320 24 61.4113991684 12.7996525079 88.2925192753
49321 20 95.6241760384 80.5614471717 96.2863449365
49322 20 94.672127014 78.0842302024 95.4536528147
49323 21 95.2287829134 80.8319645404 4.2132422746
49324 21 94.7042111971 77.8603892399 93.9575757763
49325 22 95.5985461079 81.8638966329 95.74446834
49326 22 3.4341400925 79.9829964774 96.3372306379
49327 22 95.9518462814 77.5905266505 95.8996510214
49328 22 93.5193413806 77.4749113435 95.9815919672
49329 23 94.5189086703 79.6774951889 95.6551377428
49330 24 71.8864640144 18.7592661299 47.9569016711
49331 20 3.8138157094 62.9824952005 80.5322627253
49332 20 6.2994999099 63.7810452616 79.3898600199
49333 21 3.8970175729 61.4070027935 80.2841013909
49334 21 6.1023178168 65.3699138732 79.1415116057
49335 22 96.5374995475 63.3692826554 79.4221312828
49336 22 96.7096129494 63.1520830254 81.7748466554
49337 22 7.6640037357 63.6177246095 79.7209912389
49338 22 5.8800576785 63.1941759769 78.1503629063
49339 23 5.3029820206 63.4878912389 80.5970858707
49340 24 43.2879514838 32.8919278469 55.558982263
49341 20 84.6575590582 36.4161368315 15.937541737
49342 20 84.6095730934 38.1516759943 18.0353609029
49343 21 83.1961853198 36.0145700736 15.6331629273
49344 21 84.688146603 37.9733889595 19.6243230545
49345 22 85.4432006141 35.3236844286 15.5054809742
49346 22 84.8778455047 37.5274842926 15.0866093362
49347 22 85.617091274 39.0900681945 17.6789739131
49348 22 83.3035691163 38.6789603675 17.7430487393
49349 23 84.7020840469 36.6853446417 17.4668254372
49350 24 89.7440713249 36.461690759 16.7970798079
49351 20 72.2767124453 69.2616410949 10.0524045772
49352 20 71.3761103616 68.4379288027 12.6212719332
49353 21 73.5695272976 68.5473704768 9.9161356621
49354 21 72.779208747 67.9494634848 13.0530520763
49355 22 72.6720120304 70.5260198199 10.6054217749
49356 22 71.7527019683 69.2246928374 8.6731214484
49357 22 71.292392158 69.785558032 13.057635531
49358 22 70.3899192765 67.5656693065 13.1963551914
49359 23 71.4477619192 68.3413956338 11.0538333109
49360 24 64.5900717906 64.4803494969 18.9369919254
49361 20 40.383537826 89.6366875285 14.9054225647
49362 20 42.898451372 88.6000784414 14.0117424331
49363 21 39.260778498 88.66209539 14.334174442
49364 21 43.8398368487 89.7251762667 14.4894506634
49365 22 40.5665953954 90.6120279861 13.9602954923
49366 22 39.99768577 90.0235685233 16.2237738076
49367 22 43.6695942446 87.418576061 14.0050075608
49368 22 42.4974458535 88.9742380108 12.70218394
49369 23 41.7108688986 88.6847320439 15.0223474301
49370 24 45.5996028437 86.957050232 13.4821195625
49371 20 6.40018625 14.5394009659 79.1286031006
49372 20 8.9150156101 14.7233003943 80.3978459
49373 21 5.4797537092 15.7186583889 78.7451830818
49374 21 9.5565589618 15.602949542 79.2800441863
49375 22 5.4784160887 13.5914676967 79.6633706652
49376 22 6.9830987972 14.1153846338 77.9247446859
49377 22 9.5281041266 15.1339405217 81.6195704341
49378 22 9.2362409544 13.4201961538 79.9197635101
49379 23 7.3902405327 15.1219674155 80.2561329631
49380 24 9.6301655031 15.2365537836 83.420213362
49381 20 93.6795752162 34.5285018036 54.5190057398
49382 20 91.3930860873 34.8439183207 56.3449979785
49383 21 94.46708757 33.4769263337 55.3234488141
49384 21 91.9375818008 33.8007614411 57.3790814886
49385 22 94.2743018518 35.7599544866 54.836012435
49386 22 93.7931326455 34.1057950301 53.1107626603
49387 22 91.8316011027 36.1510447765 56.8709727933
49388 22 89.954255463 34.6215739965 56.2830745698
49389 23 92.1455209815 34.3815506327 55.0696750861
49390 24 95.7222993855 40.5075717233 53.7295290483
49391 20 25.1544014908 25.2264272079 47.0638763187
49392 20 22.3763602276 24.6279589766 46.7061797703
49393 21 25.8233988009 25.2224049925 45.6710673215
49394 21 21.7975353737 24.0405284526 48.09683735
49395 22 26.1131853875 24.5310516481 47.8700966509
49396 22 24.9058659968 26.608946817 47.272189659
49397 22 22.0398972348 25.9749334266 46.6003861521
49398 22 21.6994120266 23.8537292875 45.7293426744
49399 23 23.9474562597 24.3593124057 46.8231046358
49400 24 20.9032940027 24.0402478329 44.1507634509
49401 20 16.1986115766 64.1756900675 23.3148459676
49402 20 17.8541741314 64.5128078395 21.0861644923
49403 21 15.0485386 63.0693937605 23.1504963768
49404 21 18.6138115973 65.8612789278 20.8799090296
49405 22 15.6125841509 65.1664646073 24.1885085623
49406 22 17.3106138169 63.5398994191 23.9916070889
49407 22 18.875629756 63.7171575151 21.688654939
49408 22 17.4570972884 64.1402384483 19.7464861539
49409 23 16.6195410922 64.8109194765 21.9744193101
49410 24 18.6466440995 64.5662191181 25.0978098559
49411 20 25.0278420164 33.5460523142 7.9831992644
49412 20 27.2786924463 32.3999080131 6.98760742
49413 21 24.7815514798 34.9902147123 7.4523977912
49414 21 27.5887771895 33.3441932265 5.6994227924
49415 22 24.5350738635 33.6554004484 9.3193698568
49416 22 24.2011364477 32.8141026565 7.0372583949
49417 22 28.6181837049 32.0628837809 7.4280212952
49418 22 26.5357050813 31.3175579186 6.5317688166
49419 23 26.5879003412 33.2893788495 7.9445766428
49420 24 26.4133549021 29.5049418844 7.1859306998
49421 20 18.1884857067 25.5976870407 45.2378840799
49422 20 18.9188451863 28.2542199837 44.7444611477
49423 21 18.6119407995 25.2726359147 46.6620289411
49424 21 18.4474041288 28.6973184538 43.2969313135
49425 22 19.2281816103 25.1369095309 44.4875070634
49426 22 16.9526366489 24.8503033007 45.0246131254
49427 22 18.823528036 29.4101859735 45.5338442994
49428 22 20.2916366466 27.824684798 44.6368902715
49429 23 17.9297543645 27.1245387037 45.1849405009
49430 24 25.6455794656 33.6147105952 47.2668578851
49431 20 92.0804172164 4.737795283 60.904319412
49432 20 93.8464503841 6.8280844876 60.7135915714
49433 21 92.1356057529 3.7069304806 59.7424604089
49434 21 93.3244042449 8.152964815 61.439554676
49435 22 90.6693679401 4.6788277348 61.1629572143
49436 22 92.922837487 4.2069376859 61.9002386459
49437 22 94.699066503 6.2019284481 61.68809017
49438 22 94.4902854633 7.3853296884 59.5491134514
49439 23 92.5407270267 6.0897834712 60.355895023
49440 24 85.8531859623 4.4900642321 61.7658218206
49441 20 32.2826089881 31.0787505734 71.4804073416
49442 20 30.317897089 30.8321794171 69.3395598252
49443 21 31.9244447402 30.4013346729 72.8741517378
49444 21 29.9613230193 29.3672511629 69.6380456217
49445 22 32.8808901396 32.2772772142 71.8664464774
49446 22 33.1556168035 30.1358684584 70.8351691641
49447 22 29.037803662 31.3874322182 69.0385484516
49448 22 31.1956754389 30.811413561 68.2412144091
49449 23 30.876610866 31.3157806606 70.7399455537
49450 24 34.5320563196 29.4954008154 69.8326085978
49451 20 74.6105327597 60.882524617 55.0848285487
49452 20 75.1404362499 60.8954331222 57.8710077825
49453 21 74.5037102026 59.4210573388 54.5459452288
49454 21 75.9455341034 59.7842727408 58.5947259297
49455 22 75.3689542069 61.5132641112 54.060847347
49456 22 73.1977062255 61.3044830715 55.3109144685
49457 22 75.6205765174 62.0634657581 58.5174619786
49458 22 73.7686737284 60.494146984 58.0381635701
49459 23 75.5584660288 60.6829104867 56.3570646247
49460 24 71.3535672476 54.9701486406 61.6747139654
49461 20 45.9797489662 80.6053173812 15.3963199198
49462 20 47.1195325546 82.0969980447 17.4628032218
49463 21 44.6026546709 80.2146947907 16.0299591506
49464 21 46.0275478512 81.9061766643 18.6310229375
49465 22 46.9161768287 79.5105264811 15.6654341901
49466 22 45.706238321 80.7936131846 14.0290473132
49467 22 48.0322012844 81.0046391817 17.7498771515
49468 22 47.6152004443 83.3847617428 17.6187342224
49469 23 46.3575565915 81.9937300035 16.1154546123
49470 24 48.5458288334 79.341125736 15.0694915359
49471 20 93.3423639042 40.4253501579 57.9189002074
49472 20 94.6962603062 42.0730553618 56.1938375125
49473 21 92.2514081396 41.3678581133 58.2990463299
49474 21 93.6403820013 43.1543765175 56.1017942584
49475 22 94.3730799781 40.5822165574 58.9309083028
49476 22 92.7487597473 39.1253327339 57.8345272245
49477 22 95.5722613982 42.4812634521 57.239707049
49478 22 95.2780784367 42.1487291347 54.863793783
49479 23 93.7810659994 40.8730320827 56.5132762449
49480 24 3.6501882465 41.5249115926 57.5062957422
49481 20 89.7093680248 73.7261130774 65.6230328219
49482 20 89.4735539562 76.5841309486 65.2836700925
49483 21 90.2987628866 73.083400477 64.3824132296
49484 21 89.6090932602 77.1160923164 63.8526968191
49485 22 88.7093330356 72.7328129604 65.9851257453
49486 22 90.7735713802 74.0061715151 66.5627345806
49487 22 88.5470413224 77.5147593377 65.862869106
49488 22 90.8368978874 76.657653304 65.7542692909
49489 23 89.0478539061 75.0796353199 65.0963096881
49490 24 29.1917703248 37.9627254117 59.9655530522
49491 20 51.9662085374 76.2094101398 11.9179174205
49492 20 50.3657409791 78.5362149622 12.5801705044
49493 21 52.7160243145 76.6970335987 10.6276187913
49494 21 50.2480677945 79.5483165976 11.39000633
49495 22 51.6779185891 74.8177236213 11.6339303073
49496 22 52.838187414 76.4790856495 13.0826106823
49497 22 49.0887343686 78.6255455594 13.2014998855
49498 22 51.4330311509 79.0168229292 13.4505966188
49499 23 50.6422449009 77.1230142685 11.905364367
49500 24 56.8691019954 74.7900358131 14.512367937
49501 20 36.2247542117 10.876397489 22.0045391555
49502 20 33.8972010701 10.7085869222 20.2922914258
49503 21 37.2211411451 11.7514164121 21.3833407303
49504 21 34.1573355108 11.4736590558 19.0040600282
49505 22 37.0313487035 9.8957065496 22.6328466124
49506 22 35.4923368545 11.6649855516 22.9211365607
49507 22 33.1506591892 9.5898498095 19.7622943957
49508 22 33.1983645343 11.5726055539 21.1494909994
49509 23 35.3387443513 10.3087412983 20.8192016395
49510 24 35.273827666 5.854465164 27.1067661241
49511 20 40.705127976 54.1326859843 43.7988663759
49512 20 41.5989951873 53.1780178429 41.2680510482
49513 21 39.2808895749 53.5806135396 43.6319912079
49514 21 40.9702200309 51.8374041056 40.8957622766
49515 22 40.5681855735 55.4771348572 43.4162882161
49516 22 40.9884603099 53.8388771824 45.1694128787
49517 22 40.7506819035 54.1569128165 40.7448824302
49518 22 42.9665484136 53.1865299731 40.7869753818
49519 23 41.5117224678 53.1644545585 42.8207197215
49520 24 47.2095179311 56.4194557329 43.5466828261
49521 20 91.3707300531 11.7449153896 70.7213311151
49522 20 89.4810371476 11.9122489031 72.7677033403
49523 21 91.2666201529 10.2456205789 70.6574433686
49524 21 88.8238258639 13.3364779501 72.6749117671
49525 22 92.7218202583 12.1077566321 70.4640964111
49526 22 90.4756468231 12.2801225917 69.7301824157
49527 22 88.693337714 11.0150423175 71.9684049601
49528 22 89.5800023537 11.5996198748 74.1752916405
49529 23 90.9405400881 12.1819057047 72.1937425608
49530 24 87.0620955312 6.8009485648 79.1480593982
49531 20 87.6568221668 12.5135607471 67.7628513996
49532 20 85.8667492467 11.9988107194 69.9684285215
49533 21 86.7136594321 13.0642768634 66.6949999884
49534 21 85.6271935824 12.8076969386 71.2918309186
49535 22 87.7727180934 11.1550621824 67.2940294591
49536 22 88.7975411541 13.3161797935 67.5991565879
49537 22 84.6172433646 11.9225289372 69.3357246896
49538 22 86.3105024961 10.6957719569 70.3109716073
49539 23 86.883247257 12.8564312225 69.1320883439
49540 24 93.2108468156 10.7492861293 66.5435589027
49541 20 8.5422030151 71.7330585909 95.4634745034
49542 20 9.1623163775 69.4437632653 93.935219742
49543 21 8.0088385489 72.6739763681 94.4268654162
49544 21 9.7734312023 68.6669144592 95.1255148723
49545 22 9.9395580511 72.1279840164 95.661966155
49546 22 7.7371145155 71.9846809013 96.5509692919
49547 22 8.4869209387 68.5147250544 93.1734308586
49548 22 10.1599473915 70.1245466019 93.1875553824
49549 23 8.2402281806 70.3482004845 94.7363889201
49550 24 6.7927638242 72.2884984717 4.4460256507
49551 20 95.5924660149 36.954458912 57.8965441731
49552 20 3.2697372775 38.6432281287 55.929213157
49553 21 96.4122496316 35.6328337728 57.9203033058
49554 21 4.6402051133 37.9011761626 55.6132354006
49555 22 94.2372600544 36.6201473367 58.0717443915
49556 22 96.1264852604 37.766104558 58.9380173347
49557 22 96.3898000574 39.0394631127 54.6192805044
49558 22 3.4561640602 39.7034092687 56.9044600747
49559 23 95.7910512064 37.5573235183 56.4316159189
49560 24 96.0850470881 39.6852625296 50.2412393824
49561 20 21.1566000312 84.4093977237 72.4720237405
49562 20 23.3222356191 83.9165360309 70.7313398836
49563 21 21.1435979862 84.5566295143 74.0525673017
49564 21 24.1427675549 85.2244108059 70.8989633707
49565 22 20.0367404399 83.5303098153 72.3570632128
49566 22 20.9138640105 85.7579623519 72.0088141936
49567 22 24.3602478047 82.9051827147 70.5708254283
49568 22 22.4163953015 84.120640076 69.6531055444
49569 23 22.5659655894 83.7437678497 72.0803722112
49570 24 19.0943260244 85.9225925624 64.9488908177
49571 20 58.9201512152 7.2862896503 86.3923499019
49572 20 61.3204783931 6.3834239013 87.2467432787
49573 21 58.4281313814 6.3153268597 85.2878308529
49574 21 61.655070588 5.1624570403 86.4223762073
49575 22 59.4583797559 8.3686584528 85.6534782921
49576 22 57.7190989973 7.7763077304 87.000546282
49577 22 61.9164210473 7.4772419866 86.5021657355
49578 22 62.0299784766 6.0852280784 88.4709933899
49579 23 59.7881078764 6.4098302129 87.311659964
49580 24 57.2129546398 11.4561577419 3.6269632267
49581 20 82.6762905981 45.3246891 21.9144602391
49582 20 81.4497019896 47.1421692086 23.4227910034
49583 21 82.7155773529 45.9320436211 20.5463457735
49584 21 81.3839434452 48.350611078 22.4607332105
49585 22 81.5652237566 44.602561131 21.9663748794
49586 22 83.8508710265 44.5017251271 21.9494441589
49587 22 80.2220844422 46.490102619 23.1634048819
49588 22 81.5887022696 47.7228648604 24.7354363129
49589 23 82.6701169652 46.4142417663 22.9552786214
49590 24 80.7597517435 46.868097324 26.3050357067
49591 20 88.6947408124 69.2360111643 52.5046241578
49592 20 87.1063399003 66.9579406258 52.1765797553
49593 21 89.9002829452 68.5754324445 51.783150968
49594 21 87.1300990329 66.5591800647 53.6797658255
49595 22 88.8886490093 69.00515471 53.9176377718
49596 22 88.7419784581 70.5610037396 52.264600794
49597 22 85.757026953 66.8232431808 51.752750503
49598 22 88.0417388239 66.1992385589 51.4793333977
49599 23 87.3743316919 68.4976072541 52.0532941772
49600 24 86.2561558186 76.3600093665 50.8300730048
49601 20 94.2134073819 85.2963429831 19.3325721302
49602 20 95.1426326726 87.9032062433 19.4035689085
49603 21 94.7306829866 84.4081817051 20.5101458351
49604 21 95.8492330195 88.0047905664 20.7468953027
49605 22 94.0672045301 84.2638496512 18.2844576363
49606 22 92.9735361086 85.6939810655 19.8482575568
49607 22 95.9307998056 88.7177516259 18.5203652448
49608 22 93.7520686328 88.3098241554 19.5983189644
49609 23 95.2651699316 86.3920692822 18.9763722201
49610 24 66.9062130653 24.2238666416 20.3592659887
49611 20 59.1113467552 17.5465214255 11.4814228668
49612 20 60.0530128516 16.6323560574 9.0363368505
49613 21 57.7718554966 16.680529102 11.7710597895
49614 21 59.4344335434 15.3267262399 8.5737914367
49615 22 58.6393444583 18.7612304677 10.8843109639
49616 22 59.6255355435 17.7837385925 12.7689714232
49617 22 59.2927206065 17.626872193 8.3834377558
49618 22 61.4141118253 16.601487893 8.6759089372
49619 23 60.0197126499 16.5942853213 10.6119602133
49620 24 31.1242109611 30.3910452848 51.6621103473
49621 20 21.396623395 35.2765403228 67.5000978419
49622 20 20.2545013093 36.9251809257 65.5530649825
49623 21 20.9697073263 36.0256077809 68.7939416331
49624 21 19.9834227012 38.108460564 66.5659149369
49625 22 22.7067431274 35.9413283378 67.2379990635
49626 22 21.4801545189 33.9009426658 67.8957715866
49627 22 21.5185058748 37.1617433135 64.9823780992
49628 22 19.2350100225 36.9667126379 64.6213141147
49629 23 20.2895787689 35.6097294194 66.4236407607
49630 24 32.3499577106 33.8808315889 71.1799572074
49631 20 66.3889374606 78.9374075606 69.7842484735
49632 20 68.4282941938 77.5602197254 71.220272901
49633 21 65.3520477538 79.6831075825 70.7176830593
49634 21 67.3664293357 76.8361274186 72.1002962083
49635 22 65.7963622425 77.6482407641 69.477905326
49636 22 66.6305510026 79.6992899838 68.6263181459
49637 22 68.7160229027 76.6203308869 70.2047102896
49638 22 69.4780924058 77.7398163187 72.1517431491
49639 23 67.748539796 78.8795999071 70.6204951112
49640 24 65.3395134082 76.4213715359 68.1200802485
49641 20 55.1541416089 61.8406537345 18.3792135473
49642 20 57.240548908 62.9693996156 20.0530163812
49643 21 54.575316755 62.7854066473 17.292279998
49644 21 57.7614725685 64.1639975809 19.2016162809
49645 22 54.0445714057 61.1431267571 18.9617799969
49646 22 56.1632499677 61.0805485692 17.7587634412
49647 22 57.4546617216 63.2938895022 21.4392775859
49648 22 58.0290902006 61.8850851833 19.7075735587
49649 23 55.7464362073 62.7776428362 19.5454689252
49650 24 57.5610165792 60.196877206 18.8481290277
49651 20 62.6716621382 50.2593861215 62.2909547763
49652 20 60.667008705 50.3756562077 60.3127731327
49653 21 62.1194961536 50.4671382224 63.8191159978
49654 21 59.4193736207 51.0763635414 61.0173156019
49655 22 62.8897971672 51.5971001221 61.7811623629
49656 22 63.9044243796 49.4580298636 62.4926267842
49657 22 61.4581691146 51.3804617314 59.6528491921
49658 22 60.0016594507 49.53940957 59.3662429619
49659 23 61.5106449942 49.6643788662 61.4490022052
49660 24 65.5382856795 48.833744622 61.7783561662
49661 20 39.3509509543 28.4262398458 73.7032893437
49662 20 39.0646253437 27.2817792627 76.2696498305
49663 21 38.9455490608 27.0457781143 73.1659026621
49664 21 38.4514713493 28.4095897449 77.1239496674
49665 22 40.4055197007 28.8942199272 72.8692876634
49666 22 38.1020998514 29.2140328192 73.7768116991
49667 22 38.0362477671 26.4120453436 75.823371004
49668 22 39.9006849017 26.5882745008 77.1753966082
49669 23 39.855224514 28.0877189753 75.1530641354
49670 24 41.6744818805 27.84030596 58.0154333763
49671 20 63.0482537448 84.6649487097 64.2886862574