ITEM: TIMESTEP
15500000
ITEM: NUMBER OF ATOMS
4000
ITEM: BOX BOUNDS pp pp pp
3.23005382 96.76994618
3.23005382 96.76994618
3.23005382 96.76994618
ITEM: ATOMS id type x y z
49081 20 29.3988676465 26.4535770558 11.7040665186
49082 20 29.7659181841 25.1604815838 9.220124031
49083 21 28.7630769981 25.1953719636 12.3605856071
49084 21 29.7456200275 26.3121447385 8.2040469502
49085 22 28.3163304722 27.3352840812 11.2707336133
49086 22 30.0587915871 27.0367047447 12.8358524462
49087 22 30.6361198028 24.2177865486 8.7029700281
49088 22 28.426894625 24.7116771802 9.1524946888
49089 23 30.2392300395 25.7523084828 10.5263525039
49090 24 23.4272809183 27.1180844511 11.0956269348
49091 20 47.0603218028 59.8338488838 61.4676166437
49092 20 48.1627829741 59.3321009012 58.9687919592
49093 21 46.0918097573 58.5913584936 61.4306683863
49094 21 49.427348779 60.0450619607 59.0733695589
49095 22 46.3046130124 60.8413670644 62.1172511962
49096 22 48.1887870642 59.3393034729 62.1581281291
49097 22 48.5008361451 57.9717502466 59.4239570755
49098 22 47.7426017777 59.5803557755 57.5993679351
49099 23 47.2937038342 60.1540359353 59.9687334086
49100 24 48.4733354168 55.9432441409 59.3041324733
49101 20 4.7953316708 17.4905845698 83.2660596194
49102 20 6.2692584627 16.8576001182 85.4968925123
49103 21 5.3058630493 16.4316194484 82.1924087349
49104 21 7.6761358597 16.2971090832 85.2697776537
49105 22 4.566598572 18.6377578097 82.5187694194
49106 22 3.6020507471 16.9350511491 83.8435749148
49107 22 6.2911935674 17.6820607295 86.6774594938
49108 22 5.4938782329 15.649906568 85.6271000425
49109 23 5.9650106088 17.7829902734 84.2616982337
49110 24 9.9606512968 22.9586460575 81.8262935962
49111 20 93.39820722 86.5394881526 5.4401395648
49112 20 91.3077777055 87.9858955081 6.5464545797
49113 21 92.9675495555 85.0932678768 5.0549142261
49114 21 90.4994059557 86.6551969994 7.0864697323
49115 22 94.0834804714 86.3139634721 6.653033933
49116 22 94.2685023785 86.8817506187 4.3726903751
49117 22 92.1229778674 88.365761011 7.6780253655
49118 22 90.1884793535 88.867134834 6.2198787535
49119 23 92.0031532653 87.3320516605 5.3133368867
49120 24 94.90158037 85.7756413915 8.1941504296
49121 20 47.8881498502 59.1950649589 65.324921185
49122 20 45.0229294073 59.0656057478 65.1525271634
49123 21 48.3312483203 59.7131824226 66.7316676262
49124 21 44.34270731 58.1171112393 64.1249914458
49125 22 47.8267876808 60.3839569908 64.6293585454
49126 22 48.9356095648 58.3200928057 64.9979057213
49127 22 44.1732130251 58.9652374433 66.299045624
49128 22 45.1058992918 60.4058453256 64.6164500403
49129 23 46.4957150125 58.4890258513 65.4423137499
49130 24 46.5284539748 58.6435537535 56.449762658
49131 20 88.1185350755 46.5679278094 19.5291929839
49132 20 86.7243229799 44.5198718662 20.6709409101
49133 21 89.4933844134 46.8100090508 20.2526305114
49134 21 85.5003534883 44.3710498974 19.686433543
49135 22 87.1589093198 47.4368198695 20.1362668854
49136 22 88.3908297021 46.9508801287 18.1615462177
49137 22 86.931046142 43.1973113281 21.1843813792
49138 22 86.3431479185 45.3981179155 21.6778978513
49139 23 87.8690641826 45.0686704147 19.7879243262
49140 24 86.5784942877 41.6594219578 13.7566591466
49141 20 40.960585422 49.1067875678 95.635868525
49142 20 43.7600473205 48.4293716674 95.6989144124
49143 21 40.2914945719 48.8369249784 3.4481392728
49144 21 44.0219590191 47.7615903758 3.5085342397
49145 22 39.9876770016 48.7476879211 94.7193646596
49146 22 41.2853559283 50.4613387491 95.5675844036
49147 22 44.5109855764 47.5672144795 94.8619194556
49148 22 44.2727394706 49.7683952265 95.8547518731
49149 23 42.2459170829 48.174194841 95.4845209792
49150 24 44.9142360524 51.1277169423 94.4289232939
49151 20 36.9734475101 39.40679427 47.0839873956
49152 20 36.7060169579 37.6612463387 44.9827072536
49153 21 36.3466366914 40.6075658682 46.2410058856
49154 21 36.5256720454 38.8334882697 43.9212165551
49155 22 37.9061337769 40.0082557779 47.9899212531
49156 22 35.8790307695 38.8469580142 47.8165918325
49157 22 37.5295421702 36.7553124812 44.2604857447
49158 22 35.3915943904 37.3495714173 45.4160775749
49159 23 37.5690160048 38.4186388471 46.0604738933
49160 24 34.6701212007 37.4861396602 47.4627304197
49161 20 41.3296002974 40.2915881118 32.9545995748
49162 20 41.1390595366 42.9043443852 33.9733425425
49163 21 40.0829941519 39.5247480743 33.3601885481
49164 21 40.4318979504 42.5464607571 35.3183526547
49165 22 42.4750898192 39.9149965052 33.7975810847
49166 22 41.4539148143 39.772628789 31.6338162947
49167 22 42.5093254198 43.2148968279 34.2579844349
49168 22 40.4785743567 44.0623682526 33.5090105168
49169 23 40.8821054523 41.7579194645 32.9628310853
49170 24 90.6236269328 34.9285719233 20.0072753738
49171 20 68.879998334 89.8297538663 34.7508461278
49172 20 68.1207350277 89.7711978937 37.3298345
49173 21 70.4583904777 89.8792364694 34.8702965703
49174 21 66.48500293 89.7091809451 37.4659350434
49175 22 68.5495218943 91.2017970075 34.7413985987
49176 22 68.5823543965 89.1561731014 33.5391303622
49177 22 68.4740352012 89.0145537044 38.4815911947
49178 22 68.446347393 91.1296777504 37.4174813792
49179 23 68.3818048673 89.0984589878 35.9992295312
49180 24 68.7875809204 92.919376511 36.9156398567
49181 20 90.2155123824 14.6352793556 80.9129700872
49182 20 91.6646323948 15.8434406053 78.8781968087
49183 21 89.1924665797 15.8947004663 81.1578575254
49184 21 91.2871989292 17.2302630494 79.5688953739
49185 22 91.2736356448 14.8181498451 81.8179685458
49186 22 89.4280935685 13.4404943104 81.1783427618
49187 22 93.0016916162 15.5423356918 79.2493631016
49188 22 91.5441530135 16.129579136 77.5429148453
49189 23 90.5689996356 14.8536950042 79.3713391212
49190 24 91.0704669986 17.4789856232 87.6141679759
49191 20 91.3055327481 85.9920927025 26.2090637771
49192 20 93.9114606093 86.6189970611 25.1391544883
49193 21 91.5677250664 85.3681816204 27.6224515507
49194 21 94.6110454643 86.7974711757 26.4402008512
49195 22 90.1901630716 85.245176662 25.7234981959
49196 22 90.9566289496 87.3529110565 26.5676021846
49197 22 94.839002182 86.0267960025 24.2603471996
49198 22 93.4622820462 87.9410898997 24.6952141592
49199 23 92.6452110865 85.7458957058 25.4239834606
49200 24 95.9096597899 84.4642121007 18.5437502179
49201 20 63.4170815404 71.1103635275 80.6375886441
49202 20 62.9356317144 71.6009802629 83.3901870566
49203 21 63.3125974807 69.5411382932 80.6917482418
49204 21 62.3058276192 72.9832192523 83.2286436625
49205 22 64.482875074 71.2285979514 79.6871297978
49206 22 62.1107034037 71.6152918664 80.2709122661
49207 22 61.8685286224 70.6168470554 83.3887839582
49208 22 63.6803027975 71.6623424323 84.5747762534
49209 23 63.8496100027 71.4993023999 82.1221602757
49210 24 64.3840969476 70.4093755741 86.0373660104
49211 20 56.18728972 69.6023133828 82.6528120851
49212 20 58.2109317513 71.4401851879 81.9290939379
49213 21 54.9416189735 70.3354790591 83.2235925083
49214 21 57.7763454114 72.905300522 82.2222479606
49215 22 56.8387950703 69.1391973758 83.8487196089
49216 22 55.7148197237 68.4436347362 81.9051477255
49217 22 59.0556905192 71.0253357653 82.9820725062
49218 22 58.9179997977 71.5954614092 80.6847327499
49219 23 56.8710663332 70.63892247 81.7492167249
49220 24 57.3265120691 68.0234535397 85.2158051358
49221 20 84.6123792902 71.0289838211 72.8822897084
49222 20 84.4933030072 72.8836928068 70.5907494254
49223 21 83.1678427324 70.8305857094 73.1656220424
49224 21 83.0415638778 73.2487790067 70.1982560371
49225 22 85.2527533933 71.0796824428 74.2041019274
49226 22 85.0036566599 69.928019288 72.0555841398
49227 22 85.2932561666 74.0754845754 70.4260256749
49228 22 84.7374421262 71.8005008533 69.6911762806
49229 23 84.5260419695 72.3927954517 72.110959756
49230 24 87.0026041596 73.8266684617 69.767317753
49231 20 6.9278073668 84.0807920819 11.4538192446
49232 20 8.6103000567 83.6787576245 13.7529175509
49233 21 5.9393619703 82.9187459991 11.3215912527
49234 21 7.6419002591 82.8894680128 14.6782141661
49235 22 7.385675786 84.3607569797 10.1667851576
49236 22 6.0840962457 85.0194649017 12.175591762
49237 22 9.8471125755 82.9661707245 13.8450543449
49238 22 8.6373050237 85.0120752502 14.4055453799
49239 23 8.0684795842 83.4623998535 12.3242734209
49240 24 14.4872992458 58.8376490302 88.3107595543
49241 20 67.4167537978 89.8901806368 30.031945638
49242 20 68.3448566098 92.3392420986 30.9889522767
49243 21 68.7713049791 89.290402847 29.7012821185
49244 21 69.6978176129 91.8262693288 31.215505896
49245 22 66.6135267421 89.4197685181 28.9462281074
49246 22 67.1596126337 89.3553195323 31.2747166479
49247 22 68.6077972473 93.6877131868 30.5354708786
49248 22 67.7554617481 92.2931269316 32.2649299484
49249 23 67.6760463795 91.4788621686 29.9004285493
49250 24 67.3788701414 92.397985151 34.151910197
49251 20 71.1007289185 61.4502182238 74.7243708087
49252 20 69.4923104694 63.3195194327 75.979769704
49253 21 71.8739296688 61.8903234173 73.3598108589
49254 21 69.947194966 63.7223957491 77.3967119935
49255 22 69.9918134946 60.667008705 74.2499364746
49256 22 72.0826171686 60.8070379239 75.5360164547
49257 22 68.8769115176 64.4286219364 75.3914037811
49258 22 68.6098551249 62.1850676181 76.1581502788
49259 23 70.8403138582 62.9114048823 75.2379048177
49260 24 66.7515916233 62.1222088105 76.5036866411
49261 20 18.4275736716 82.2922158001 59.8120540889
49262 20 19.6236682752 84.8853286961 59.7136501221
49263 21 17.016805015 82.4507659176 59.2805604205
49264 21 18.886106224 85.8290526701 58.7698326082
49265 22 18.2686493945 82.4453406039 61.207575743
49266 22 18.793127571 80.9559984377 59.3959886476
49267 22 19.0993771785 85.1522915489 61.0299434874
49268 22 20.9994530121 85.197377777 59.6096337618
49269 23 19.2351971022 83.4662349891 59.0490491869
49270 24 14.0649666318 85.1697835087 70.8672533472
49271 20 8.2475055842 25.8463160746 88.0786870813
49272 20 5.4761430693 26.4193414552 88.3896136835
49273 21 8.2975307187 24.6372194259 89.1360620246
49274 21 5.0141682489 25.9740915675 89.8296603264
49275 22 9.5276177191 26.4465615638 88.0232179252
49276 22 8.0537751132 25.3325014458 86.7665094713
49277 22 4.7478321134 27.6313378405 88.1087133868
49278 22 5.1729522162 25.2917180528 87.5882574257
49279 23 7.0400084677 26.7847082747 88.4902626077
49280 24 8.2727987711 24.2142320327 85.1981260961
49281 20 13.4750105307 64.6736029145 29.0118931118
49282 20 13.3241306843 65.0942518104 31.8477420285
49283 21 14.8958814957 64.2069323915 28.5708525193
49284 21 14.1470011174 64.240419673 32.8149445155
49285 22 13.5502166042 66.0463943748 28.882246821
49286 22 12.5627814385 63.9729891207 28.1416914932
49287 22 14.0843293896 66.2932461507 31.7863798591
49288 22 11.9773620221 65.1882594023 32.4092620023
49289 23 13.3144025355 64.2101127478 30.5400543333
49290 24 10.2721391384 64.854789686 32.5832462021
49291 20 19.3481932922 34.8153886535 39.0518103785
49292 20 19.1506370396 32.4520097331 40.6734179524
49293 21 20.3050128512 34.2883849 37.9063208567
49294 21 18.6327066556 32.7501213701 42.1345110711
49295 22 20.189584624 35.5754002789 39.8778611679
49296 22 18.413355608 35.6840936339 38.2930147717
49297 22 18.6403769267 31.1789317981 40.3981300492
49298 22 20.5520517069 32.3846610106 40.7704188208
49299 23 18.5892106056 33.6005860714 39.7451280607
49300 24 17.3881583877 30.0239947472 39.761310462
49301 20 44.8569896382 35.1902030022 74.3381445931
49302 20 43.855270931 37.5569493587 73.3083639181
49303 21 43.8258058649 34.3863211673 75.2582965143
49304 21 45.0893427309 38.4830878329 72.9775133189
49305 22 46.1194975654 35.1021819635 74.9515792072
49306 22 44.7422161903 34.5480516411 73.0698371926
49307 22 43.5343355603 36.8526875091 72.1025411657
49308 22 42.901070489 38.5584809862 73.7504334494
49309 23 44.4015439023 36.66944286 74.4647976074
49310 24 47.7404503601 35.0999370061 76.0133505254
49311 20 59.0594321149 8.0345713732 86.0457846007
49312 20 61.6308437559 7.6101434657 85.0448142125
49313 21 58.6196075411 6.5523475929 86.2743960976
49314 21 61.7635768632 6.220309037 84.4603769651
49315 22 57.8929896572 8.782170255 85.6454338614
49316 22 59.6157138548 8.3794903723 87.3243813893
49317 22 62.399835211 8.4358855734 84.1400963736
49318 22 62.2588705932 7.4704509904 86.347076594
49319 23 60.1793852462 7.8831770575 84.8813064807
49320 24 59.4548252399 13.3145896153 89.2204350075
49321 20 94.8531267057 89.4352026003 94.2018084352
49322 20 92.2439249482 88.3871816463 94.5857896934
49323 21 94.7434979519 90.8484032941 94.7495780449
49324 21 91.8947405301 87.1473103731 93.6690052083
49325 22 95.8599901071 89.4047085954 93.1789497123
49326 22 95.2292506129 88.631694925 95.3148396144
49327 22 92.6078886694 87.7494266602 95.807888387
49328 22 90.9917064092 89.1101514744 94.6070232489
49329 23 93.3470408988 89.142609817 93.7320510958
49330 24 75.4232073445 24.7189732919 50.1315170886
49331 20 96.5246845822 63.0402093141 76.6160280519
49332 20 94.705146596 64.5995193197 78.0166008602
49333 21 96.4864267662 63.9962805539 75.3541749039
49334 21 93.9484088668 64.2200279764 79.3179278427
49335 22 96.5548979674 61.6816359175 76.1270014946
49336 22 4.2339613608 63.340940068 77.3527482441
49337 22 95.7806682784 65.4589638507 78.5090883935
49338 22 93.7159622343 65.2731000846 77.2219794746
49339 23 95.195295632 63.3052078292 77.3708949832
49340 24 40.6329151791 37.2533188681 52.9234022559
49341 20 83.781745046 41.6886999441 14.8286263131
49342 20 83.5166529911 41.2195973839 17.5742092336
49343 21 83.3753142137 40.469594527 13.9577699152
49344 21 83.4342443459 39.6660868516 17.7905670046
49345 22 85.2020547716 41.7382760871 14.9748291648
49346 22 83.3542677379 42.8114592721 14.0916255012
49347 22 84.9186288977 41.4786093459 17.6665331074
49348 22 82.6949050367 41.9296587068 18.5448726966
49349 23 82.9359573393 41.5929150943 16.1529641091
49350 24 89.3848781383 42.4050284398 13.2029029838
49351 20 74.4117604884 66.1961517424 9.0490863378
49352 20 75.6850255032 65.8887796561 11.4677566885
49353 21 75.4456569187 66.4861254087 7.8954494913
49354 21 77.2006523791 66.4881832864 11.346575758
49355 22 73.9171215376 67.4496798399 9.453917638
49356 22 73.4070485046 65.3412906662 8.5500229501
49357 22 74.8610325914 66.8504632895 12.0171913083
49358 22 75.9317837393 64.8163447902 12.378966196
49359 23 75.312362572 65.4445587073 10.0648640909
49360 24 71.1593784311 63.4646933456 19.2410901155
49361 20 48.256790566 87.3471115832 13.8373840737
49362 20 50.3947383457 88.761154136 12.682259943
49363 21 47.6533647203 86.3280879958 12.7536308808
49364 21 51.110599142 89.606661223 13.8312104408
49365 22 47.4052969258 88.513460501 13.8223241511
49366 22 48.2483719756 86.5279827458 15.0553670121
49367 22 51.4602512596 88.3471465724 11.8136578565
49368 22 49.4722479273 89.7339690165 12.1824950061
49369 23 49.7746623993 87.5413939396 13.3928825052
49370 24 52.7193917507 87.3198914745 10.7464986405
49371 20 96.0489406897 22.2778627209 81.8128238517
49372 20 4.6886494235 22.8682865215 83.3728821765
49373 21 3.3748732167 22.4753254337 80.4546246146
49374 21 5.5803371554 23.9424986454 82.5671295437
49375 22 94.7637961085 22.7072108269 81.4894564438
49376 22 96.1943952223 20.9087193165 82.0301170217
49377 22 4.7901308528 23.298008787 84.779347998
49378 22 5.1892000955 21.6061527539 83.0556884015
49379 23 3.2536342915 23.1224344091 82.9124788263
49380 24 4.7118286089 23.7337176056 86.5507129396
49381 20 95.8830944605 36.9448243031 50.5798537927
49382 20 94.5555763081 36.702462442 53.0935513201
49383 21 95.5948980521 35.5290044923 50.0734288155
49384 21 93.7781662627 38.0943360403 53.3492893858
49385 22 3.6738435499 37.2533188681 50.279777818
49386 22 94.8957808966 37.7545991512 49.9976615027
49387 22 93.4753776312 35.9593815371 52.4711368763
49388 22 94.9099054204 36.2172710203 54.3436184416
49389 23 95.7846904937 37.0094603687 52.1198010406
49390 24 4.7406014798 41.937328978 52.9562347581
49391 20 21.4758516838 28.1568449558 39.8225790915
49392 20 18.8033234192 27.2447374654 39.8628947851
49393 21 22.2494265937 28.4023871732 38.4449235569
49394 21 18.6793830618 26.1406861158 40.9399131058
49395 22 22.4052640543 27.5209607675 40.6473203225
49396 22 21.2856850827 29.5118638365 40.192342286
49397 22 18.4458139506 28.411273463 40.5639762784
49398 22 17.9302220639 26.8423288484 38.7666072467
49399 23 20.309502766 27.1835623758 39.4480453625
49400 24 16.9376702661 27.0995635524 37.2256310599
49401 20 9.6811073285 67.978835011 31.9384757241
49402 20 12.0434573101 69.2272184145 30.9785693487
49403 21 8.3720445969 68.1965958804 31.1639654153
49404 21 11.6584938831 70.5263939795 30.3684086308
49405 22 9.6883940861 68.9372447481 32.954412495
49406 22 9.6731751456 66.6327024201 32.3179670674
49407 22 12.3931468437 69.4884753338 32.3207732642
49408 22 13.0997284826 68.8998287912 30.127543408
49409 23 10.804287586 68.2252190875 30.8472393398
49410 24 14.1615933406 67.3395833866 30.2774878555
49411 20 23.106813247 26.3803353201 7.8877885742
49412 20 25.9466843791 26.257891601 7.6703457404
49413 21 22.5813996716 27.5971022399 7.0359301284
49414 21 26.1615455118 27.6008438356 6.9758494556
49415 22 23.3011891434 26.869642497 9.2005554855
49416 22 22.1064040982 25.3725365198 7.7616593833
49417 22 26.066696061 26.6013700857 9.0515744989
49418 22 26.9335302435 25.364492089 7.0555454439
49419 23 24.4483623833 26.0029953943 7.2139271896
49420 24 27.4016974047 23.5816217406 8.2060861199
49421 20 14.3415640935 26.906123055 39.2778962983
49422 20 14.2886205145 29.6037200108 40.2469695832
49423 21 14.9849314732 26.0972836058 40.4348912269
49424 21 13.173250838 30.5571721336 39.5442043719
49425 22 15.4306490603 27.1996512372 38.3528803028
49426 22 13.4943732884 25.9585639454 38.6587557508
49427 22 14.2563492516 30.1368038573 41.5690624218
49428 22 15.5745134147 29.8279351328 39.6649643729
49429 23 13.6715378446 28.1391659161 39.9503545845
49430 24 20.339061372 36.9795276032 41.1312957255
49431 20 92.1164300749 4.1373140732 63.5878853839
49432 20 94.1887128503 5.6536630771 64.9302763791
49433 21 91.3924313081 96.7011943591 64.5381571504
49434 21 94.1145357156 5.2283465405 66.4182154469
49435 22 92.147672399 3.4719339507 62.3293996721
49436 22 91.3385523301 5.3101565303 63.6450382581
49437 22 95.626327456 5.7954134299 64.7352457036
49438 22 93.3309520374 6.7832508172 64.800068849
49439 23 93.5881867413 4.3166786876 64.1911241497
49440 24 87.3200785543 6.0073467641 66.1084113234
49441 20 30.9601419899 28.7421240623 64.8990340551
49442 20 28.3320451741 28.7817849766 63.8566254946
49443 21 30.8631411215 27.6843749594 65.9564089983
49444 21 27.5545415889 27.6695956565 64.6835181431
49445 22 31.7855380001 29.7735884553 65.4172450588
49446 22 31.5481337533 28.0735944516 63.7602794055
49447 22 27.3578271952 29.7708757984 63.6165085909
49448 22 28.6173418458 28.2288706729 62.5605367461
49449 23 29.5081222408 29.2882099539 64.7231790574
49450 24 32.8074613241 27.0425042181 63.0777188109
49451 20 71.4834941581 62.7110424329 53.4899733839
49452 20 69.6969757539 61.9278329142 55.5065999233
49453 21 72.8472122488 63.1858509265 53.9856412735
49454 21 70.0753446185 61.8795663297 56.9827529647
49455 22 71.1392673542 63.5285810921 52.3607598034
49456 22 71.6448504724 61.3617294856 53.1522008326
49457 22 68.3240907537 62.388516884 55.5386841064
49458 22 69.876759427 60.6238868147 55.0427355971
49459 23 70.5842951728 62.9398410096 54.7600580424
49460 24 67.0127550027 53.6200873742 54.3391285268
49461 20 52.9503417449 81.8445338752 14.3487666653
49462 20 55.359181053 83.0077024367 15.3970682389
49463 21 52.3240921656 81.1250250232 15.6015464436
49464 21 55.3754569942 83.527971318 16.9448728378
49465 22 53.5931478852 80.7475915575 13.6822013923
49466 22 51.7688393645 82.2580737393 13.7040897271
49467 22 55.8960064952 81.6841129598 15.4437446452
49468 22 56.1328495027 83.9648026153 14.7186233996
49469 23 53.835790366 83.047456891 14.9309589553
49470 24 54.7793272602 79.5467264194 12.9791555613
49471 20 96.2049652301 38.7720325604 57.2508382962
49472 20 3.9170220143 40.9907052673 55.9174271306
49473 21 94.9737931669 39.2329036101 58.1219753137
49474 21 96.7465612069 42.2483491201 56.5947494911
49475 22 3.7270864566 38.6088989882 58.1576140127
49476 22 95.8394113308 37.496709668 56.6677106072
49477 22 5.1326832926 40.6691151174 56.6127091505
49478 22 4.1951423054 41.3465310179 54.540519915
49479 23 96.4105659135 39.8309976819 56.1089968301
49480 24 6.8822160233 40.6245901286 56.0698971551
49481 20 87.8716832995 71.8512930148 66.4322464307
49482 20 87.9811249736 74.6504742937 66.8393320423
49483 21 89.0768512727 71.3678788511 67.2195717047
49484 21 89.4056439944 75.3234002793 66.7442955117
49485 22 87.6532676509 70.9187938279 65.3836642374
49486 22 86.7663223915 71.756443564 67.3558593279
49487 22 87.1260768175 75.6379749374 66.2678968399
49488 22 87.7964772261 74.3396412314 68.2123105824
49489 23 88.2261059517 73.3722516646 65.8981336454
49490 24 26.5622704107 34.6862100622 53.1609000426
49491 20 56.5585495528 75.0255692621 10.4063875919
49492 20 55.2546034533 77.6466505859 10.5751803277
49493 21 57.0061379377 75.3693283665 8.9781082675
49494 21 54.637894943 77.9247446859 9.1746636433
49495 22 56.2753107587 73.6232191958 10.2226191194
49496 22 57.6613848837 75.2953383116 11.2649622019
49497 22 54.357181726 78.264388035 11.5086149135
49498 22 56.5981169273 78.2421255407 10.5624495483
49499 23 55.2911775512 76.0352388602 10.6899163596
49500 24 62.3157428478 72.8775191739 11.789730352
49501 20 36.6299690254 8.0810887617 28.9731675964
49502 20 33.8362130603 7.7539142802 28.764105937
49503 21 37.1447190531 9.0564666353 27.9783708411
49504 21 33.5274378756 9.1498381559 28.2155880082
49505 22 37.6633042163 7.0899774782 29.1449068388
49506 22 36.4332546318 8.8515300851 30.1543893571
49507 22 32.924853889 6.8380277782 28.1923901149
49508 22 33.7111502242 7.821010445 30.2034978006
49509 23 35.3263035456 7.5311303186 28.3789086602
49510 24 39.0840816414 95.7752429646 32.53292174
49511 20 40.8568496814 42.734195321 41.3083667418
49512 20 41.5105064492 45.6178431227 41.5291208878
49513 21 40.0227544612 42.4579720189 40.0484779316
49514 21 40.8662036706 46.3429643683 40.2763411094
49515 22 40.4057067805 41.9070220529 42.311020848
49516 22 42.1749203046 42.401380384 40.8665778302
49517 22 41.4214564716 46.5547386846 42.5759258232
49518 22 42.866273649 45.3327335308 41.1634734485
49519 23 40.671172995 44.2998660393 41.7013278296
49520 24 48.3784859659 44.1577789429 43.0584981278
49521 20 92.2494438019 13.4634115841 73.5672823402
49522 20 89.8139456245 14.0671180494 74.9096733354
49523 21 92.4571023629 11.9785312708 73.7979517147
49524 21 89.6268658398 15.3784538004 74.1316085108
49525 22 93.5514255636 14.012677832 73.6238739751
49526 22 91.6693093895 13.6281353345 72.2381740096
49527 22 89.0017387391 13.0422014488 74.2272062808
49528 22 89.4419374726 14.2764603285 76.2240959029
49529 23 91.4469650653 13.9690882422 74.8043474166
49530 24 85.1378864054 12.5937712048 80.3461183395
49531 20 89.4987161873 13.3269368811 68.7406238944
49532 20 87.0962375919 12.9606346626 70.1880601888
49533 21 89.2483098954 14.4247210579 67.669498587
49534 21 86.1291286448 13.8690940972 69.4263648453
49535 22 89.1742263007 12.0993099798 68.0977242142
49536 22 90.8307242545 13.4285212042 69.0142280796
49537 22 86.8039254283 11.6826178213 69.7100713388
49538 22 86.7037442035 13.0133911619 71.5529007582
49539 23 88.5404935299 13.6205586032 69.9253066311
49540 24 96.6174761554 10.7383419619 71.2848154267
49541 20 5.8009229296 80.3272232813 91.7821184997
49542 20 4.9575017822 78.4411784316 89.9253516363
49543 21 4.6573883915 81.2383953727 91.8025101962
49544 21 5.8329509887 77.1759578475 90.1080350461
49545 22 6.8915232426 81.2054693306 92.0413175414
49546 22 5.4886774149 79.4023943655 92.856798323
49547 22 3.7317989964 78.2772030003 90.7099642534
49548 22 4.6262115454 78.3640080204 88.5511570776
49549 23 5.7826452346 79.724358675 90.3580671784
49550 24 4.9496912011 78.763236281 94.354933239
49551 20 5.6172947669 37.2433100996 54.5896283585
49552 20 6.626103798 39.5202581594 53.1269450617
49553 21 6.8118740243 36.3292382715 54.0271729858
49554 21 7.5686772314 38.8709977666 52.0882780969
49555 22 4.4584196865 36.4212815255 54.5223731759
49556 22 5.8680003864 37.6903372452 55.9253780214
49557 22 6.09775307 40.669489277 52.4450392464
49558 22 7.4626123474 39.8339909584 54.2526041263
49559 23 5.5337075191 38.4515648892 53.4968017961
49560 24 3.3947551209 43.8688342154 49.9116983416
49561 20 16.1640953563 87.4277429704 70.830959869
49562 20 16.7174773595 84.8941214459 69.873298451
49563 21 16.8290704511 87.9518469873 72.1009509875
49564 21 17.931905782 83.9124202756 70.1330587321
49565 22 14.8913915808 86.9904439736 71.227194853
49566 22 16.2146068982 88.6733201771 70.01323413
49567 22 15.6558931211 84.4179098539 70.5750347235
49568 22 16.5852119517 84.7561501047 68.4365257043
49569 23 17.1080064101 86.3715840458 70.2549412118
49570 24 18.0879303225 85.6478658986 62.4833663349
49571 20 58.3241150211 6.5108626506 90.5425278461
49572 20 61.128440994 6.6116986546 90.7200665618
49573 21 58.3455356564 4.93508027 90.387906404
49574 21 61.5580697197 5.1289884668 91.0862752404
49575 22 58.1892304963 7.0337506489 89.2053750848
49576 22 57.2130481796 6.8018559018 91.3697946541
49577 22 61.2286222188 6.6232601853 89.3125718015
49578 22 62.1126677415 7.5017307304 91.317786474
49579 23 59.6642610589 6.8265878493 91.327327543
49580 24 57.9566903239 12.655320454 4.2292375962
49581 20 83.7172960602 47.0476939173 24.3906482697
49582 20 83.0579333589 46.6841978956 27.0812297335
49583 21 82.8985413823 48.3516400168 24.23396895
49584 21 82.517366321 48.134253307 27.5835389555
49585 22 82.7986407773 46.0084657132 23.9917006288
49586 22 84.9059074724 47.2788309913 23.5915369692
49587 22 81.9141275551 45.9226896319 26.7405574455
49588 22 83.7095322491 46.1585972404 28.2179265055
49589 23 84.1150276825 46.9789420964 25.8748457417
49590 24 82.5253172118 45.1398542727 29.4276779334
49591 20 96.1083385213 69.7642309365 53.4482545919
49592 20 94.6096423659 68.2818107224 51.652008039
49593 21 3.9288959682 69.5357129795 52.5324990457
49594 21 95.8220129108 68.4781509564 50.7187605329
49595 22 96.5643454966 69.6906150412 54.798596478
49596 22 95.6348395862 71.0748183684 53.0742821023
49597 22 94.1978797597 67.0041493326 51.3438876335
49598 22 93.5908058583 69.1577182744 51.1677520162
49599 23 95.1781778317 68.5527957905 53.0855068894
49600 24 95.4753540697 77.215525222 51.8308563131
49601 20 3.2486509537 83.551449831 21.1348987762
49602 20 4.8703038945 84.7173310494 23.0063514026
49603 21 96.2970084842 82.1359106399 21.3124374919
49604 21 4.7271597972 83.8440426143 24.3046851086
49605 22 3.46047812 83.7344138605 19.7311456115
49606 22 95.6952663566 84.2971498529 21.6786461705
49607 22 6.2342932509 85.1092631984 23.0288945167
49608 22 3.9463327395 85.739628533 23.188567113
49609 23 4.5993936582 83.7055100337 21.8714318886
49610 24 61.874982875 24.4013118174 20.4254922325
49611 20 55.2269156452 16.3644578057 14.4134027309
49612 20 54.3230396653 18.9464394545 13.6545135842
49613 21 56.6794030937 16.4724963814 15.0780036661
49614 21 55.1092424606 20.1980032143 14.3699066809
49615 22 55.3458048484 16.0506314669 13.0192841751
49616 22 54.6140422704 15.2697604454 15.1217803357
49617 22 54.882034062 18.7132445029 12.3248627222
49618 22 52.9733525584 19.3966469565 13.6359926855
49619 23 54.5229344153 17.7779391192 14.6640896424
49620 24 27.9575114451 34.7091273358 40.2547333942
49621 20 22.4423993916 37.5281390718 65.606476261
49622 20 22.4744835747 37.7481448987 62.8398468647
49623 21 20.8272460702 37.4925939127 65.9107615308
49624 21 23.8150037721 38.5426727444 62.5620333844
49625 22 22.7508939566 38.8699688277 65.7918723277
49626 22 23.037313107 36.6989079261 66.5981861998
49627 22 22.4090991899 36.8930967426 61.7181164755
49628 22 21.6144778043 38.8354526075 63.0247752319
49629 23 22.5559568209 36.9594165263 64.2023489368
49630 24 32.1013286767 31.4622641321 64.8873415685
49631 20 62.7911125807 75.0842187746 66.0330181702
49632 20 65.3651433387 74.8794599502 67.3213431076
49633 21 61.8244713331 75.9351511754 66.9144445759
49634 21 66.6625416457 75.2249963126 66.5733981283
49635 22 62.3873944053 73.7495915904 66.3104574909
49636 22 62.5055352894 75.4559463068 64.6735093746
49637 22 65.549136307 75.6285274082 68.5014423896
49638 22 65.4401623324 73.4520411928 67.4195599946
49639 23 64.210861067 75.5283461835 66.4889316055
49640 24 62.5183502546 72.1498723513 65.5361342619
49641 20 59.8271140115 59.9182218667 20.782253382
49642 20 62.0506507928 61.0421036734 19.6471467882
49643 21 58.5305575635 60.1800400254 19.9922154511
49644 21 61.8913523561 61.9648747115 18.3604120289
49645 22 59.479145612 59.9521768476 22.1355885447
49646 22 60.3005194068 58.6467341098 20.3226918908
49647 22 62.9865174159 61.707265848 20.4343785223
49648 22 62.5247109673 59.7487275817 19.1061120508
49649 23 60.6532583409 61.095421412 20.2697483118
49650 24 62.0158539529 57.991393624 19.9075618485
49651 20 63.9093819939 46.3063902704 58.0214199294
49652 20 63.6040677852 43.651915205 56.9191458378
49653 21 62.6506156624 46.7151596 58.8959243831
49654 21 62.4572687049 42.7865776607 57.6032030707
49655 22 63.624272402 46.890640438 56.7729429861
49656 22 65.000805458 46.8746451164 58.6862079444
49657 22 63.1453481531 44.2458935215 55.7470909866
49658 22 64.6668680422 42.7152067229 56.7294469361
49659 23 64.0162980909 44.7350136186 58.0328317963
49660 24 66.6641318239 47.6704825206 58.423267307
49661 20 33.634821672 18.3196286358 76.1973434937
49662 20 33.6788789613 19.153723856 73.6275220309
49663 21 35.0142544647 18.6322389561 76.7742975497
49664 21 32.433862994 18.3200027954 73.1532747766
49665 22 33.7396798914 17.0110055417 75.6681883226
49666 22 32.6890398204 18.3585412311 77.2848382822
49667 22 33.4747749162 20.3704907758 72.9085744182
49668 22 34.7860171273 18.3472229041 73.2217459778
49669 23 33.4753361556 19.4549223094 75.1425876674
49670 24 38.0905009047 32.0312672973 54.4381872728
49671 20 58.1999875839 77.4908131252 57.8969183327