ITEM: TIMESTEP
16000000
ITEM: NUMBER OF ATOMS
4000
ITEM: BOX BOUNDS pp pp pp
3.23005382 96.76994618
3.23005382 96.76994618
3.23005382 96.76994618
ITEM: ATOMS id type x y z
49081 20 15.3591845825 36.8917871841 13.0460365844
49082 20 17.4519525943 35.7890453931 11.5949241722
49083 21 15.9931044331 36.3351312847 14.3687842022
49084 21 17.2118356906 35.1036786018 10.1487506664
49085 22 14.3319294846 35.9210301812 12.851660688
49086 22 14.9496669338 38.1888113316 13.4013946354
49087 22 18.753092497 36.3284899523 11.467401237
49088 22 17.3647734146 34.6962188306 12.4971819119
49089 23 16.4275036932 36.8916001043 11.8919320384
49090 24 10.4799754252 32.6851111449 15.3893044279
49091 20 45.3133707731 55.8886168437 64.7657397085
49092 20 48.1382755223 56.0510956367 64.4299314949
49093 21 44.4849814863 55.0773453573 63.7717848122
49094 21 48.6290793376 57.1019227875 65.5250965546
49095 22 44.5127628344 57.0610458546 65.0283997262
49096 22 45.4227189072 55.08370607 65.9509836846
49097 22 48.358468429 54.8340480973 65.1268972329
49098 22 48.9830342902 56.3423788616 63.3115685418
49099 23 46.6416372446 56.4008412943 64.0578298031
49100 24 48.7691085564 53.1728731488 64.7886569821
49101 20 10.7010943768 18.5119466545 82.4421602475
49102 20 12.1900717374 18.4851942453 84.9233994323
49103 21 11.4124091342 17.2640309505 81.9299357969
49104 21 13.5090590515 17.5689709996 84.7990849153
49105 22 10.7186237526 19.4114262595 81.3470887277
49106 22 9.3534557936 18.1269364576 82.8978866031
49107 22 12.6948878284 19.5040307529 85.749169602
49108 22 11.2189873448 17.6769160354 85.5900582451
49109 23 11.8423746035 19.0026569298 83.4884974834
49110 24 16.2131102599 23.92977722 80.3422832039
49111 20 94.2615804264 92.5561611089 11.4800478304
49112 20 91.953857742 93.6980961149 12.7416577746
49113 21 93.7487947365 91.2472573951 10.8635357538
49114 21 90.6749803337 92.8712034664 12.4254555225
49115 22 94.9023286891 92.2691807192 12.6572847917
49116 22 95.1209314176 92.9780260235 10.4411283079
49117 22 92.4419489004 93.2664095116 14.03175997
49118 22 91.4505195812 95.0289817034 12.8181734066
49119 23 92.9188152716 93.3750093267 11.5222810918
49120 24 95.5753482146 91.8201892358 14.4444579751
49121 20 48.2754985444 49.2586028131 65.0410276117
49122 20 46.8639815687 51.3133000887 66.369481163
49123 21 49.2673020231 49.4174335504 66.2098085667
49124 21 46.8885825604 50.863747366 67.8627520046
49125 22 49.0314879545 49.8361181086 63.9792562935
49126 22 48.0953407117 47.8394155663 65.0123108647
49127 22 48.0310788057 52.1270971522 66.1814659793
49128 22 45.6967907919 52.0741535732 66.2554560342
49129 23 46.9067292995 49.9868108752 65.4493292418
49130 24 49.8232096034 56.0720485726 61.6169998518
49131 20 84.0530107338 47.2129789071 16.0655978496
49132 20 84.9552965355 47.0547094092 18.7863926987
49133 21 84.1931334926 48.7474073014 15.8278194433
49134 21 84.7459542564 45.5482494428 19.2544663201
49135 22 82.7092166402 47.0725755287 16.4245104166
49136 22 84.4050948887 46.6614677018 14.7970098294
49137 22 86.1274449267 47.3910788622 19.5220839521
49138 22 83.7450774082 47.7293191129 19.1051766519
49139 23 85.2011193727 47.0102779604 17.2244635761
49140 24 84.8993596799 41.6834617101 10.8427324818
49141 20 46.8100090508 48.7923999896 91.9589088962
49142 20 48.1805555537 51.0142530528 92.7205106998
49143 21 47.3632975141 47.6543001193 92.8826153333
49144 21 49.1359720143 50.4742472542 93.7897652094
49145 22 46.5454782352 48.1231220598 90.720721341
49146 22 45.627103572 49.2040690559 92.6258483287
49147 22 48.8957615707 52.0532006373 92.0976285566
49148 22 47.0046655668 51.4249867202 93.4076547491
49149 23 48.0019878992 49.7664308888 91.7942786857
49150 24 46.4370655 54.3959072414 90.1989558215
49151 20 41.400316456 37.6926757425 48.7071851477
49152 20 41.3613103209 36.8817784156 45.9384978737
49153 21 40.1044147872 38.482152434 48.8205554972
49154 21 42.0944759972 35.5042164208 46.0570129173
49155 22 42.2294540619 38.5235906063 49.4948845812
49156 22 41.1116523482 36.4538334081 49.2930254935
49157 22 39.9865545228 36.4783408599 45.8639465795
49158 22 41.9070220529 37.5389896994 44.7816900249
49159 23 41.8002930357 37.7254147048 47.1865071176
49160 24 40.1443563213 34.7057598997 49.2299796061
49161 20 33.711337304 56.3756790632 37.2928862426
49162 20 33.3008842563 59.1212619838 37.919042282
49163 21 34.3828601912 55.7589705529 38.6146049216
49164 21 32.8940792644 59.5255413986 39.3415034251
49165 22 34.7404631997 56.811294342 36.4064086827
49166 22 32.9681628592 55.3195201386 36.6312785839
49167 22 34.7081919369 59.2761640455 37.9214743192
49168 22 32.6027024997 60.0014723709 37.0429476502
49169 23 32.8676074749 57.5918847437 37.8333597406
49170 24 88.1190963148 39.348612457 21.9453284036
49171 20 68.5084578816 90.9878712736 34.0714658896
49172 20 68.920033408 92.4699173282 36.455610666
49173 21 69.9492528436 90.3986634917 33.7737284122
49174 21 67.6350759066 92.9798968213 37.1914889992
49175 22 68.534181352 92.1915426085 33.2873209719
49176 22 67.67557868 89.9669768884 33.5161195486
49177 22 69.7496387133 92.1086662639 37.6155053313
49178 22 69.3389985858 93.5482452073 35.5848478081
49179 23 68.442886417 91.1779443349 35.6398492648
49180 24 69.868060217 94.4465087936 34.1111268039
49181 20 96.37015668 15.4941626472 80.7538587303
49182 20 4.8703132485 14.9825929759 78.8375069555
49183 21 96.1860701719 16.9926717228 80.4672525001
49184 21 5.1937648423 16.4799795728 78.5699828634
49185 22 3.7245159804 15.2956709956 81.8158171283
49186 22 95.0913728116 14.9587403033 81.0393424818
49187 22 5.8018302666 14.5177932508 79.7762733153
49188 22 4.8566190082 14.284691839 77.5731282305
49189 23 3.3459591006 15.0064456484 79.3980915304
49190 24 96.6244916473 20.3180148962 86.0293215796
49191 20 7.1343247412 89.2539222889 30.0594463664
49192 20 6.970265124 91.9962313133 29.2644508212
49193 21 6.8308252064 88.4771670228 28.70929156
49194 21 6.958067522 92.8000196083 30.6847605468
49195 22 5.9405779889 89.2933025836 30.7995339947
49196 22 8.1155395041 88.4023351089 30.6669879672
49197 22 7.6936371736 92.8229368819 28.3575815648
49198 22 5.6179963161 91.8909989344 28.8242520877
49199 23 7.7407906333 90.6110925872 29.5491862535
49200 24 7.2036284474 92.6085434487 22.3290290421
49201 20 61.4055996951 66.182588458 78.640699022
49202 20 59.2216302883 66.4576892815 80.3313390365
49203 21 61.8866753615 64.8656403135 79.296787827
49204 21 58.1730480949 67.2006766465 79.5196933905
49205 22 62.5344391161 66.9355845915 78.1615876933
49206 22 60.6148134451 65.7608170834 77.492777463
49207 22 58.8659916175 65.0978063263 80.0446392664
49208 22 59.0963803724 66.9763679846 81.6667145398
49209 23 60.5772104084 66.9467158387 79.6915261728
49210 24 58.6854596253 66.782272708 83.469789505
49211 20 53.880128275 63.9429628153 76.1642303718
49212 20 56.368944191 65.1781570939 76.8884162184
49213 21 53.0151648903 64.838233125 75.1990857624
49214 21 55.8725279822 66.7010800814 76.6824413754
49215 22 53.3723937392 64.1723226313 77.511859601
49216 22 53.6432852675 62.6367717584 75.7177644655
49217 22 56.3148781332 64.9463652406 78.3038618696
49218 22 57.6483828387 65.1354093631 76.3119298618
49219 23 55.3741474357 64.3984085512 75.9423537471
49220 24 53.3086930725 63.1783677351 79.0530228675
49221 20 85.5152263312 72.4987761498 75.3728828824
49222 20 86.3623235964 74.7478493217 73.960243428
49223 21 84.1073574113 72.1859787497 75.8366536687
49224 21 85.2348872738 74.66235386 72.8484282674
49225 22 86.281879289 71.9634473458 76.4712282985
49226 22 85.6500173161 71.7744967632 74.1360984256
49227 22 86.4910344883 76.1441192949 74.1738885421
49228 22 87.5229665808 74.1296441731 73.3404481012
49229 23 85.6903330097 74.0755781153 75.1573669704
49230 24 88.179803705 72.6169170338 72.3687556994
49231 20 8.5584415404 90.7342846254 13.7488953356
49232 20 9.7686887297 90.9363307929 16.3643642658
49233 21 8.8798913805 89.3107945435 13.2313391111
49234 21 10.6491890905 89.6853282725 16.6901637109
49235 22 8.7668671286 91.6553719455 12.6117308641
49236 22 7.2055740772 90.647760225 14.2872174161
49237 22 10.4983279521 91.9675145663 16.939541064
49238 22 8.5028788443 90.707719296 17.0558111502
49239 23 9.6941748515 91.0453983074 14.8177756855
49240 24 14.2724381131 63.7060262679 4.8270510483
49241 20 69.5371160779 87.9046093417 29.9539333678
49242 20 70.4088143348 90.5873334545 29.6942666266
49243 21 70.8887675225 87.0908122781 30.1490575832
49244 21 72.0017051618 90.5358865137 29.7482391445
49245 22 68.8178878455 86.9890408752 29.1235797433
49246 22 68.9092763203 88.2568805763 31.1788382582
49247 22 70.0494340683 91.6257197996 28.7546584078
49248 22 69.9685220614 90.8939572217 31.0159853056
49249 23 70.0399865392 89.1065034186 29.1160965519
49250 24 68.8738247011 92.4698237883 31.4792883925
49251 20 70.7608049497 57.024191137 73.345873415
49252 20 68.1010916503 57.8572574183 73.1565486728
49253 21 71.4109072016 57.7197537766 74.6182030308
49254 21 67.7519072322 58.5438402282 74.5374781037
49255 22 71.819863611 57.0715223225 72.3500477209
49256 22 70.3018982378 55.7068688329 73.7479078723
49257 22 67.367084115 58.6302710888 72.1958939783
49258 22 67.686897007 56.5345098005 73.2672063655
49259 23 69.6605887358 58.04695632 72.9631081754
49260 24 65.7134858979 57.5241618616 71.8942278254
49261 20 19.239780557 86.1134139429 62.5090898053
49262 20 20.6802013594 88.5257142269 62.2745852951
49263 21 17.8474392592 86.3639137746 61.9101538745
49264 21 19.8591081843 89.6165764516 61.6028753281
49265 22 18.9226803219 86.432197896 63.8804781672
49266 22 19.4327533549 84.7919758835 62.2892710582
49267 22 20.4454162296 88.7211190621 63.631194354
49268 22 22.013612525 88.854132789 61.8429922318
49269 23 20.1453402549 87.182200753 61.7447753448
49270 24 20.0497424849 91.9685435051 73.574391372
49271 20 13.3443353011 28.0851933982 84.7227563631
49272 20 10.4712575073 27.9850121735 85.2430252444
49273 21 13.7849081941 27.5623053999 86.1772081494
49274 21 10.2447693659 28.2865847865 86.7645451336
49275 22 14.2393249912 29.189899527 84.3779683199
49276 22 13.3285270593 26.9411069748 83.8649020103
49277 22 9.2959287598 28.656347981 84.6949750151
49278 22 10.4840724725 26.6199845243 85.2089767236
49279 23 11.8893877534 28.6718756031 85.0119817103
49280 24 14.1049081659 25.6257490084 82.7209091267
49281 20 22.7760561876 82.7384946265 30.307420621
49282 20 21.1720341135 81.3802018495 32.206186896
49283 21 22.0862930214 82.7016399089 28.8738282307
49284 21 20.5988216531 80.447328503 31.056488079
49285 22 23.6130511445 81.6525900161 30.3303378946
49286 22 23.4018380675 84.0046506095 30.40386025
49287 22 22.2582193435 80.6318827107 32.7651812928
49288 22 20.0787398516 81.5995528971 33.0068883746
49289 23 21.547877401 82.5902338971 31.2845383366
49290 24 23.8760853218 85.4805230311 31.5573942026
49291 20 21.9150214785 35.0085485312 44.3283957065
49292 20 23.5390610896 33.4062101751 45.9717045355
49293 21 22.6779328406 35.6343304111 43.0885244333
49294 21 22.241288623 32.6316063265 46.4252794736
49295 22 20.9162960477 35.9265490349 44.7686879799
49296 22 21.3769800176 33.8235851748 43.7239409221
49297 22 24.2345301893 32.5237548306 45.0760600662
49298 22 24.2508061306 33.632202555 47.180052865
49299 23 23.0652815348 34.7807788933 45.3531252273
49300 24 20.0495554051 32.4597735442 44.1709680677
49301 20 57.442127376 18.1607978986 63.1414194776
49302 20 58.8207183096 20.1777985976 61.5643368924
49303 21 57.9098268378 18.0418151555 64.6475988244
49304 21 59.0519489235 19.6823177877 60.0480552373
49305 22 57.1207243059 16.8274802729 62.7111359728
49306 22 56.2591283574 18.9808621349 63.1576954189
49307 22 57.5165851304 20.8782253116 61.5125157921
49308 22 59.9372104648 20.9778452969 61.8566490561
49309 23 58.6637583703 18.7897601348 62.3600807567
49310 24 56.6410517379 15.0798744639 62.5499667382
49311 20 54.9576142951 8.2595535224 89.5631651731
49312 20 57.1563630049 6.7608854289 90.5109113625
49313 21 53.7580587154 7.6782405073 90.2326301827
49314 21 56.8097041638 5.4897811856 91.273448565
49315 22 54.5416423937 8.7556797574 88.283165286
49316 22 55.3681608826 9.2472693078 90.4173714701
49317 22 58.4035303897 6.3893262685 89.8956994904
49318 22 57.3441911087 7.8109455526 91.5179618436
49319 23 56.0264011052 7.0272309184 89.4497012837
49320 24 58.2850153461 13.6066211593 91.3225570085
49321 20 93.6552548442 96.067742208 8.1201136048
49322 20 91.4404172729 3.6470387584 9.3510705263
49323 21 94.5983240389 3.4816256189 8.8867010847
49324 21 90.5113790619 95.9731733768 9.3482269136
49325 22 94.2498879399 95.8558743518 6.8550801005
49326 22 93.5533899014 94.8829659314 8.922040456
49327 22 91.9914607788 3.4319147785 10.6302098463
49328 22 90.5614229044 4.7533229051 9.2642374442
49329 23 92.3966755925 3.353090582 8.080854912
49330 24 77.6452474875 24.264369415 46.1342768684
49331 20 86.2572782973 67.0061136704 96.4261870755
49332 20 88.3429372773 68.6395072708 95.7992827169
49333 21 85.5203710253 67.2045117821 95.0871635164
49334 21 88.5993301222 69.1840965241 3.686590231
49335 22 85.6608679436 67.96237199 3.7933089588
49336 22 86.0884387916 65.6660611724 3.3540128854
49337 22 89.6987044771 68.7411851338 95.4099696849
49338 22 87.412495968 69.5588173329 95.1625566697
49339 23 87.7768338487 67.2265871967 96.0526822853
49340 24 47.4289625186 41.402935573 52.474878472
49341 20 82.0262818861 44.8742945183 8.4801205885
49342 20 83.0366998034 44.1258818396 11.0029569634
49343 21 82.6547764228 43.5430347703 7.8830180396
49344 21 81.5499767542 43.8566740293 11.5728019877
49345 22 82.224492918 45.8863961537 7.5033863865
49346 22 80.6399271414 44.5296935549 8.6737668737
49347 22 83.4516427659 42.8414855776 10.5281204078
49348 22 83.7741683147 44.7078870498 12.1508785225
49349 23 82.7953668811 45.1858758998 9.7950763334
49350 24 87.3910753326 42.4061509185 11.8177642578
49351 20 70.0195013028 70.1483992744 16.219938672
49352 20 71.7936724411 68.0907087223 16.9831306538
49353 21 69.6184022443 69.2773557968 15.0609794057
49354 21 70.4756018179 67.2017991252 17.0864922348
49355 22 70.0727255015 71.390609045 15.6022012229
49356 22 68.9523982107 70.1541987478 17.207158696
49357 22 72.4735203788 67.6274991753 15.8113564222
49358 22 72.4947539344 67.8461019038 18.1499472711
49359 23 71.3749878829 69.5539532585 16.6799678627
49360 24 68.4337195076 62.7884934638 23.2590961918
49361 20 52.6663546317 11.3438256852 18.0555655197
49362 20 55.4314873898 11.020664065 17.6835573678
49363 21 52.4919027325 10.2520748315 19.2053578766
49364 21 55.8697217855 11.614230806 16.2956124449
49365 22 52.4520547383 10.6377959316 16.8628383522
49366 22 51.7072901153 12.3940167647 18.3559221141
49367 22 56.531422984 11.4102764247 18.5133497529
49368 22 55.2034371322 9.6474423213 17.3995702546
49369 23 54.1675763642 11.8218051811 18.1146827317
49370 24 57.5145272527 11.040662894 20.1810724938
49371 20 9.2957603879 23.3252288957 79.6676735002
49372 20 10.4278269352 23.546544281 82.2897837629
49373 21 10.4263864209 24.1377164007 78.8366650965
49374 21 11.593333994 24.4940098507 81.8582842394
49375 22 8.0708274355 23.7164127255 79.1485270976
49376 22 9.658096515 21.9551500923 79.4572087424
49377 22 10.0759485682 24.1030131007 83.5168400708
49378 22 11.0120583949 22.234366671 82.2776235769
49379 23 9.4002070318 23.9531621931 81.1450425602
49380 24 10.6954352133 24.738803749 85.2408738269
49381 20 86.6777401135 36.2385045759 55.5088448807
49382 20 88.2774593526 35.38326934 53.4119611137
49383 21 87.7346473572 36.9412697872 56.3915808449
49384 21 87.2358926512 35.0361427995 52.261139818
49385 22 85.6641418399 35.8123368263 56.4202975919
49386 22 86.1763662904 37.2738041045 54.6345275068
49387 22 88.7564771414 36.6810418066 53.2228234514
49388 22 89.3059304691 34.4120446377 53.306541655
49389 23 87.4644106082 35.1386625215 54.7253547423
49390 24 85.4788393131 33.0124072283 58.731761872
49391 20 23.381446371 28.9104023286 43.3536164882
49392 20 21.0966409602 29.6698527147 44.6891790714
49393 21 23.4679707714 27.9451641793 42.0905473217
49394 21 21.268006043 29.4885724033 46.2249170241
49395 22 24.5095374729 28.5093968101 44.1065190818
49396 22 23.4809728165 30.2193995823 42.7469167464
49397 22 21.5029782526 30.9876427182 44.4188487824
49398 22 19.7345130477 29.3405922936 44.347945544
49399 23 22.0535540591 28.5882509393 44.067232327
49400 24 17.8494035969 29.1921444844 44.2924763879
49401 20 24.5896076207 84.1898595964 34.2455436293
49402 20 26.1834338466 82.2901579224 33.1216618225
49403 21 23.1811774615 83.593168623 34.3120504927
49404 21 27.2761668692 81.44932783 33.7972069252
49405 22 24.7087774436 84.9066557915 33.046549289
49406 22 24.5785699134 84.9960799286 35.4463152275
49407 22 25.2441062476 81.3739346768 32.6083148933
49408 22 26.8370906145 83.1523151103 32.221808058
49409 23 25.5879588919 82.9834756046 34.3530209656
49410 24 23.8170616497 80.4582726704 31.7798320666
49411 20 11.8443108792 32.0042342684 12.4911672969
49412 20 14.2658903206 32.8450643608 11.2957929504
49413 21 10.9048897403 32.2783996929 11.2742226513
49414 21 14.2127596618 34.0229186854 10.1259269326
49415 22 11.0553486571 32.3758682608 13.6599388979
49416 22 12.3532146636 30.6620303529 12.4104891397
49417 22 15.4332681773 33.0369146801 12.1007504941
49418 22 14.2766474082 31.5653450935 10.6741361798
49419 23 13.0201260342 33.0551549591 12.1974613888
49420 24 16.8619964932 33.0371017599 12.9962733616
49421 20 17.1142735829 30.4612937439 47.1829526017
49422 20 18.654033751 32.8877185518 47.0063492849
49423 21 17.6146184671 29.3980257875 48.2243322233
49424 21 17.7857964701 34.1412466493 46.6947679034
49425 22 17.6862700247 30.0749739885 45.9194157357
49426 22 15.7027566072 30.2763653767 47.3232624402
49427 22 19.6375121793 33.296768501 47.9776675272
49428 22 19.1868369779 32.5180488971 45.7519793283
49429 23 17.6519408842 31.8576572571 47.6541130395
49430 24 23.2287892667 36.6718748972 46.2008772718
49431 20 96.1791482198 4.3181753259 63.7274469033
49432 20 4.0117507987 95.5491570448 64.2231147929
49433 21 3.4808744936 4.6266044129 62.5101187441
49434 21 4.7797666327 95.6226794002 62.8228226043
49435 22 95.8453978839 5.5630790453 64.3269440734
49436 22 95.0340328575 3.6355380286 63.2252312212
49437 22 4.9685488434 95.0820188223 65.2353099681
49438 22 96.3948512116 94.7211419176 63.9118140311
49439 23 3.657985732 3.4892612803 64.50373447
49440 24 92.1611421435 5.1744769165 66.065289433
49441 20 40.4568731016 24.3644570998 64.4216999844
49442 20 37.8498227617 25.5714023309 64.8755555421
49443 21 40.8001645066 23.196330924 65.3647691791
49444 21 36.9616614837 24.8620893272 65.9579991765
49445 22 41.7924356847 24.9375760203 64.2766196113
49446 22 40.0030175439 23.7510224857 63.2474937156
49447 22 37.5489984678 26.942603613 65.0243775108
49448 22 37.4509686606 25.0721799254 63.638209846
49449 23 39.433733759 25.2294204845 65.2552339652
49450 24 38.7766160152 23.0041999851 61.5848221289
49451 20 70.4843945678 43.3475363952 52.2268106775
49452 20 71.7989106751 41.4848765187 50.7172638946
49453 21 69.0517375764 43.1819707858 52.8587661903
49454 21 72.0017987016 40.112459218 51.4845716316
49455 22 70.4994544905 44.6133182186 51.5264775034
49456 22 71.2938887963 43.3081561005 53.4260856374
49457 22 71.6921816579 41.1703954006 49.3351184451
49458 22 73.0117489195 42.2134587403 50.9537327425
49459 23 70.5572621439 42.0816610319 51.3265827534
49460 24 77.8896672262 40.9334588532 53.5497453751
49461 20 58.6971521118 78.5124558296 20.73183538
49462 20 58.9428814091 81.3579393552 20.0349631819
49463 21 58.5250387099 78.3484803983 22.2550389872
49464 21 59.1763569804 82.3407630042 21.3230074997
49465 22 60.0572221467 78.244464038 20.4925603354
49466 22 57.8999116092 77.5251422657 20.1168105877
49467 22 60.2808760294 81.1080943027 19.5972900256
49468 22 58.0515397748 82.0614528856 19.2488539265
49469 23 58.2604143544 80.0275214661 20.6426918626
49470 24 58.2229983975 76.6685974714 18.504557003
49471 20 87.1384240833 30.4736410097 56.3415370025
49472 20 85.9161383099 30.3240707218 58.896859782
49473 21 86.7579973411 29.1048717648 55.5616949199
49474 21 85.1690351896 29.0361199439 59.1222909226
49475 22 88.4021480291 30.1255790703 56.8454364027
49476 22 87.1266380569 31.5394345433 55.3981871881
49477 22 87.241224425 30.237920481 59.3895343951
49478 22 85.1513561499 31.3342080194 59.5065528004
49479 23 85.9242762805 30.6430417548 57.3721595365
49480 24 88.4641649778 31.2394521085 60.1252256485
49481 20 86.8402189065 70.9647219151 70.476350137
49482 20 87.9604526574 73.3367065055 69.3879199495
49483 21 88.0716715894 70.0076217364 70.6766190466
49484 21 87.0177576222 74.5006233861 68.9795247795
49485 22 85.7487954424 70.0510242465 70.2776714057
49486 22 86.6652993078 71.6822664293 71.6530819829
49487 22 88.517856876 73.621348398 70.698881541
49488 22 88.9176463759 73.2822662882 68.3237165942
49489 23 87.2253226433 71.9137776629 69.3094399798
49490 24 31.2713492118 33.741737769 60.6385725778
49491 20 57.2036006505 72.77668317 14.8557528818
49492 20 57.5544687868 75.4819503969 15.7590676224
49493 21 57.4359537431 72.8089544328 13.3625755801
49494 21 56.9846237625 76.5818859912 14.8506081878
49495 22 56.1074066519 71.8010620926 15.0530285148
49496 22 58.4938899257 72.4364785814 15.4689068763
49497 22 57.2819870803 75.8793078596 17.1297076651
49498 22 58.9608410684 75.4539819691 15.5872348401
49499 23 56.7031622264 74.2246807037 15.2126075712
49500 24 61.4436704313 67.559121514 14.0598219378
49501 20 27.0030303835 16.9857497708 23.1964244639
49502 20 26.9918055964 18.4902453995 20.8290233282
49503 21 27.6137523407 17.5673808215 24.4721215159
49504 21 26.8951788876 19.9822066826 21.2531332001
49505 22 27.3313554057 15.5573020745 23.2609669896
49506 22 25.5351088527 17.2302630494 23.2263572295
49507 22 27.8557400423 18.4760273359 19.7693098876
49508 22 25.6887013559 18.1100057371 20.4463516285
49509 23 27.669127957 17.8323793365 22.0778744311
49510 24 28.4716066935 10.4851481813 20.9293916327
49511 20 40.8947333378 59.8708906812 43.6652914096
49512 20 42.4658293698 61.4700486809 42.0719328831
49513 21 39.3272853615 59.9899669641 43.9542361371
49514 21 41.7738212462 62.1882479745 40.9247596432
49515 22 41.3586912039 59.356608353 44.9020758664
49516 22 40.9610531215 58.9926446318 42.5676943126
49517 22 43.4358380536 62.4349126706 42.5162473718
49518 22 43.0606495454 60.3444831562 41.407238408
49519 23 41.4414740086 61.1946672378 43.261666774
49520 24 46.4903832386 56.5143987236 40.5099102206
49521 20 5.1044155371 11.5254520942 74.1408689601
49522 20 96.749086784 13.4676208792 74.8332512434
49523 21 4.5738946836 10.1867652786 74.8610325914
49524 21 3.6935018937 14.8805409533 74.363493904
49525 22 6.5370070506 11.478700856 74.2125205177
49526 22 4.7272626911 11.4806651937 72.8138185072
49527 22 95.9353832603 12.9253701232 73.789065425
49528 22 96.1204051674 13.7209269077 76.0867793409
49529 23 4.5015509308 12.6312807016 75.0833769156
49530 24 90.2422647916 15.2407630788 79.4438325378
49531 20 96.1351844704 13.3158991738 69.9942455318
49532 20 94.4586689796 11.0624951049 70.0111762523
49533 21 95.0512441977 13.6759342195 71.0375894912
49534 21 93.0543545756 11.6155777804 69.6547892624
49535 22 96.2888705136 14.470649145 69.1412552534
49536 22 3.7012254826 12.9414589847 70.7883056781
49537 22 94.5047841466 9.8013996301 69.4244940475
49538 22 94.46708757 11.0069043469 71.4417753661
49539 23 95.4289582831 12.0696671879 69.3559293064
49540 24 7.6561744467 8.5069665376 68.562804559
49541 20 4.1250304145 86.8239429652 7.5275570947
49542 20 4.2851089739 85.5157875706 5.0173766673
49543 21 96.2855966173 87.5543024448 7.4443533604
49544 21 5.7737495909 85.049584747 4.9693813485
49545 22 5.1390065893 87.7914260719 7.0507655554
49546 22 4.2759794804 86.3910403434 8.9067747456
49547 22 3.5174906844 84.5461530464 4.3076707959
49548 22 4.3364997908 86.725071299 4.3051826348
49549 23 3.8273715106 85.6237326064 6.5323581179
49550 24 5.6626709687 85.7616104077 9.8061140407
49551 20 90.9584997474 33.0968737511 56.7416071221
49552 20 88.3964420957 33.6917874665 57.8980408114
49553 21 91.8926826524 33.9430356174 57.6510954956
49554 21 88.4174885715 35.0375458979 58.7106218563
49555 22 91.6877367483 33.2067831246 55.4837761896
49556 22 90.9207096309 31.7579437318 57.1949014405
49557 22 87.1388917828 33.6562423074 57.2568248493
49558 22 88.6660240655 32.6873561023 58.8565440884
49559 23 89.4873978603 33.7413636094 56.773036526
49560 24 84.3998566547 36.5784285447 57.496941753
49561 20 22.245684998 92.0739629638 71.4348534141
49562 20 21.2931682741 89.5452055138 71.9157420007
49563 21 23.6770324309 92.0787334983 71.9578349522
49564 21 22.6313499742 88.934951256 72.59418684
49565 22 21.5196283535 92.5208030296 72.5876390475
49566 22 22.2983479574 93.0025334753 70.3575544737
49567 22 20.6333378734 90.0261876403 73.0770397643
49568 22 20.7330513986 88.493536504 71.2032486406
49569 23 21.9134313003 90.5787277844 70.9678087315
49570 24 20.1186813856 90.0193592281 65.2682360102
49571 20 51.7003681633 10.5128734054 91.7936239064
49572 20 53.2072958292 9.242723269 93.706701785
49573 21 51.1807540612 9.2515721428 91.2164827706
49574 21 52.6966615568 7.7988508445 93.7771373239
49575 22 52.790388529 10.8728523271 90.9770206461
49576 22 50.5794796332 11.4527996598 91.7906306299
49577 22 54.3379125082 9.2535364805 92.8719517855
49578 22 53.4867930276 9.5623958511 95.1035329976
49579 23 52.0242968105 10.1096322834 93.2384410838
49580 24 50.9709440827 17.1731101752 92.8297652941
49581 20 79.2746188725 47.194832168 19.020803669
49582 20 78.2478314741 48.4970945494 21.282785346
49583 21 78.6434116789 45.6991292892 19.039885807
49584 21 79.0958641382 49.8435077601 21.255845857
49585 22 80.5176705021 47.1098044058 19.7170210878
49586 22 79.5090298428 47.4740487467 17.6497894666
49587 22 77.0727833463 48.8732184566 21.9105315636
49588 22 79.0697665083 47.6265187712 22.0499995431
49589 23 78.1800150521 48.0796260098 19.7683744887
49590 24 79.0162616898 45.9977086256 22.8441532293
49591 20 86.0150099761 66.8942399591 57.0691838252
49592 20 83.3968283889 65.9710012215 57.521262125
49593 21 86.4662464168 66.7264293922 55.5839574143
49594 21 82.8672990583 66.4466515742 58.871697551
49595 22 86.5714787957 65.7990748994 57.875778317
49596 22 86.6667024062 68.1510419529 57.3819812252
49597 22 82.1560217168 66.0043014232 56.7369301275
49598 22 83.8835164489 64.624494471 57.744541848
49599 23 84.4336245559 67.0673822999 57.0208237008
49600 24 92.5475554388 70.8247862361 55.5890085685
49601 20 9.2146706553 93.7116593993 24.2223700033
49602 20 8.1638809204 96.0331324478 25.5446499217
49603 21 10.730409779 93.6460879347 24.1510926053
49604 21 9.3360573736 96.6488120194 26.3893151497
49605 22 8.7948074944 93.1617383721 23.0096252989
49606 22 8.8537002106 92.9250824444 25.3933023759
49607 22 7.3966105994 3.6613728115 25.0947230395
49608 22 7.346557403 95.2184935253 26.3686428335
49609 23 8.8094558416 95.2200837035 24.3787687033
49610 24 50.2515287705 26.0028083145 23.2691985002
49611 20 51.6565914937 28.1692857614 14.1162264928
49612 20 52.7607363831 26.5019371801 16.1323853328
49613 21 52.1145628067 27.6189905747 12.7385709582
49614 21 53.6271028661 25.5020892707 15.3747122047
49615 22 52.6832853522 29.1348980703 14.4481060309
49616 22 50.372756471 28.7291220172 13.896220666
49617 22 53.6735921926 27.4471577924 16.542370681
49618 22 52.3385908489 25.6431474284 17.1674977816
49619 23 51.6553754751 26.8682393986 15.0664047194
49620 24 29.36977674 33.653061951 43.3717632274
49621 20 34.4789256607 37.2416263815 68.6573733902
49622 20 37.2120677756 36.8047950842 68.9914043458
49623 21 34.5189607346 38.2847832611 67.4858797783
49624 21 38.2208955147 38.0163237701 68.8442660951
49625 22 33.3405451707 37.6205564855 69.4282356431
49626 22 34.4432869617 36.0169085709 67.9530180007
49627 22 37.6831346735 35.995955635 70.1081771207
49628 22 37.1737164197 36.2081976507 67.6898902835
49629 23 35.8524654401 37.4939034712 69.3697732104
49630 24 42.8627191331 26.3386165281 63.6980753771
49631 20 63.7242665469 74.8986356281 66.6574904916
49632 20 64.0202267664 72.3297495643 67.854614034
49633 21 62.8752984839 75.7210383618 67.7171103922
49634 21 63.5693644852 72.5775367391 69.3248740621
49635 22 62.8366665083 74.3640551433 65.7226528073
49636 22 64.5917555087 75.9027863726 66.1030795495
49637 22 62.9254358662 71.7434415189 67.1718663596
49638 22 65.0857396802 71.4336373955 67.9865052822
49639 23 64.4613608987 73.7848561298 67.5014074004
49640 24 62.1343689965 71.1374900962 65.7363096316
49641 20 55.5169828514 58.1580817122 20.6062113046
49642 20 58.1659390631 58.9042494335 21.4502217533
49643 21 55.5000521309 59.0928258565 19.3237793803
49644 21 58.5095110878 60.163857624 20.5960154563
49645 22 54.1647701674 58.1302068242 21.1068368085
49646 22 56.1156381625 56.929435226 20.2109117195
49647 22 58.783021733 59.0688796441 22.7254511059
49648 22 58.677882894 57.8911188594 20.5751560603
49649 23 56.5433960902 58.9118261648 21.599137262
49650 24 57.7175088191 56.1076872716 20.7343609571
49651 20 63.7427874456 30.0271751035 53.5004498519
49652 20 66.3542341605 29.0588501378 53.5815489386
49653 21 63.1899666818 28.899645241 52.5943289146
49654 21 66.356385578 27.5149742144 53.3385322982
49655 22 64.0828984942 31.1115830756 52.6372637252
49656 22 62.6451903487 30.3212645251 54.3564334069
49657 22 66.4346784679 29.6646144807 52.3032327696
49658 22 67.4780224273 29.1923315642 54.3828116565
49659 23 64.9783558838 29.351536461 54.2576552805
49660 24 65.1816180699 32.1080635489 51.5959776434
49661 20 33.659142044 17.0193305921 89.2846969135
49662 20 35.109571615 19.33275921 90.0210429462
49663 21 32.1008609772 17.4350218738 89.0569272756
49664 21 36.5432575452 18.8316660066 89.7547348726
49665 22 33.5152776896 15.7301637956 89.8533259192
49666 22 34.0686596928 17.0660069984 87.9543725644
49667 22 34.6977154689 20.0215869773 88.8875265306
49668 22 35.1993699116 20.1767696587 91.169151585
49669 23 34.2849239239 18.0063635363 90.3476842503
49670 24 43.2124647907 28.4330682579 57.7035713752
49671 20 56.5868921402 78.5271415927 63.0287974472