ITEM: TIMESTEP
16250000
ITEM: NUMBER OF ATOMS
4000
ITEM: BOX BOUNDS pp pp pp
3.23005382 96.76994618
3.23005382 96.76994618
3.23005382 96.76994618
ITEM: ATOMS id type x y z
49081 20 16.4902689609 33.8125474675 17.4918005884
49082 20 19.3010491865 33.8776512326 17.0622654027
49083 21 16.1170447904 33.6422113235 19.0041535681
49084 21 19.6567813971 34.1703375558 15.622967079
49085 22 16.4094504939 32.5368504155 16.8840719078
49086 22 15.5328881626 34.6809718282 16.9905203053
49087 22 20.3342908375 34.463865738 17.7023588861
49088 22 19.4281699002 32.4506066348 17.1060420724
49089 23 17.8998215989 34.4776161022 17.3121104552
49090 24 14.5961796805 27.5889642692 19.6520108626
49091 20 47.6725403983 56.7059684232 55.1116744978
49092 20 49.1969600241 58.5763921108 56.5420865317
49093 21 48.2686701323 55.3041795963 54.8437762461
49094 21 48.2690442919 59.730206683 56.4042087304
49095 22 46.9466708336 57.0470148707 53.976567904
49096 22 46.8519149226 56.542741311 56.2614668547
49097 22 48.8880912995 58.0417180861 57.8077748153
49098 22 50.5050218788 59.1602681189 56.3118848566
49099 23 48.8354283401 57.7046938539 55.2612447857
49100 24 49.2028530373 57.0993972104 59.4081488337
49101 20 11.6647423479 15.5780679307 79.6560745536
49102 20 13.7314969156 15.868041597 81.64052337
49103 21 12.6141629013 14.5507192929 78.8702459179
49104 21 15.1169162613 15.6297954911 80.8647970426
49105 22 10.9873451554 16.3017860778 78.5976706715
49106 22 10.7932779407 14.7673576836 80.38914669
49107 22 14.0233413797 16.9824758745 82.5013709994
49108 22 13.2711871053 14.6350922758 82.3050307653
49109 23 12.7093865118 16.3874686192 80.5449841507
49110 24 14.5535254896 22.7265735846 79.2279424662
49111 20 93.6285959748 85.9659015326 14.8766122778
49112 20 92.7548398403 88.1639019233 16.4697837245
49113 21 93.5314080267 84.727246278 15.7832944545
49114 21 92.5794525421 87.3154950996 17.8637152005
49115 22 95.0035388526 86.363539615 15.0956827058
49116 22 93.3414285053 85.4194414814 13.6014764652
49117 22 94.0327818497 88.7876259255 16.5356358087
49118 22 91.7272105828 89.1369038836 16.4895206418
49119 23 92.5411947262 87.0188801009 15.3616166197
49120 24 96.4737053409 86.8007450719 15.9649489255
49121 20 48.6847355735 52.9286404899 60.9202211937
49122 20 47.0106521199 54.8253488873 59.8751935162
49123 21 48.2441626805 53.2894238547 62.3506332276
49124 21 45.8047358276 54.9100024898 60.8915979866
49125 22 49.9464016417 53.5378658088 60.7812209136
49126 22 48.6859515921 51.5639870002 60.9626883048
49127 22 47.9505409584 55.9095697796 60.2127789877
49128 22 46.3368842753 55.0069098183 58.6345739238
49129 23 47.5315757805 53.3967141112 59.9574150816
49130 24 52.2018355262 58.5642319248 56.4748313491
49131 20 83.51758839 41.319497989 22.4979620877
49132 20 86.0144487367 41.7428595418 23.8449365376
49133 21 83.2184478142 42.652534995 21.8216686659
49134 21 86.2964715122 40.5470455579 24.8364593967
49135 22 82.7738527058 41.4382001124 23.6935889918
49136 22 82.9734668361 40.4443387561 21.5599440471
49137 22 87.3037090731 42.0340492267 23.2499292823
49138 22 85.5193420865 42.7733885359 24.5995228493
49139 23 85.0816689301 41.176943193 22.7264800447
49140 24 81.0236277799 35.1893611432 19.2920693568
49141 20 41.1390595366 48.7742532505 84.3341916503
49142 20 39.1244908749 50.4704121187 85.4199091809
49143 21 41.8861626569 48.1662439502 85.5421658202
49144 21 39.3558150287 50.2544285072 86.9471350035
49145 22 42.0985917524 48.8653611057 83.2798099836
49146 22 40.0601704181 47.90564181 84.0349575346
49147 22 38.7604336138 51.8369364061 85.3359103576
49148 22 38.0816146149 49.5833733194 85.117401169
49149 23 40.5675307943 50.1311429291 84.7834637533
49150 24 37.9848008263 52.9253665936 83.6967172838
49151 20 42.4714417634 44.7552182354 43.1178024196
49152 20 42.3690155813 44.5974164369 40.2589426894
49153 21 41.1262445714 45.502040736 43.1779485704
49154 21 43.185244682 43.3066594623 39.788249951
49155 22 43.2974925528 45.431605197 44.0717222419
49156 22 42.2218773306 43.4564168299 43.5708161183
49157 22 40.9863088924 44.1542244269 40.3498634648
49158 22 42.6207314316 45.6271971119 39.2946399391
49159 23 43.0467121014 44.918913047 41.667934088
49160 24 41.0621697451 42.2090623653 44.0592814362
49161 20 32.0010539121 59.7901657541 37.4182296983
49162 20 31.7292269849 62.5296685816 37.1609014544
49163 21 32.0086306434 59.3032906143 38.9335759545
49164 21 31.9188323467 63.1743455197 38.5229358271
49165 22 33.3705714761 59.8478798676 37.0113311666
49166 22 31.3426266098 58.7592626004 36.7311791889
49167 22 33.0158682043 62.5697036555 36.566923138
49168 22 30.7304080143 63.2591862021 36.4603812006
49169 23 31.1272977775 61.0974792897 37.3975573821
49170 24 89.9857784068 32.914470961 27.4280756544
49171 20 63.237578487 89.7589441678 32.2396741775
49172 20 63.3082011057 91.8194409167 34.2508754031
49173 21 64.6638747657 89.1605694764 32.3323722108
49174 21 61.9290489328 92.5432526038 34.4172828716
49175 22 63.3367307729 90.7076257561 31.1519923091
49176 22 62.3174265658 88.7213061419 31.9729919444
49177 22 63.9808464717 91.9021301816 35.5354587449
49178 22 63.9344506851 92.6393180732 33.2371835896
49179 23 63.0187886787 90.3628377129 33.7210654528
49180 24 65.4269732076 93.535430242 32.2977624506
49181 20 4.3408681037 10.6300788905 78.4522161389
49182 20 5.9368831631 11.0599975898 76.1812546322
49183 21 3.3932416454 11.8137046265 78.7440606031
49184 21 6.1676741396 12.5448498411 76.566358369
49185 22 5.5027083988 10.9391721108 79.2502985005
49186 22 3.6724339037 9.4839439434 78.8841833618
49187 22 7.0564247188 10.3565682452 76.6413773627
49188 22 5.9170994759 11.1568862103 74.7482234812
49189 23 4.6068300797 10.6695153091 76.8944963114
49190 24 4.7910007738 13.7720932289 85.2202950506
49191 20 16.2161970763 92.4904961045 25.3232409965
49192 20 14.5282697187 94.6127291824 24.5129984489
49193 21 17.3015404474 93.3427380638 26.080539965
49194 21 15.2036277415 96.0280812937 24.6612591783
49195 22 17.0337357356 91.4476198446 24.770139613
49196 22 15.2972611738 92.167689936 26.3731327483
49197 22 13.732900014 94.7545356592 23.3491751081
49198 22 13.7834115558 94.5948630629 25.7393999776
49199 23 15.6934026179 93.6350502274 24.2854158908
49200 24 9.0961369037 92.447467754 20.3223177313
49201 20 54.9919434356 67.7665929953 85.3868895989
49202 20 53.186623513 68.0749940204 87.488076201
49203 21 55.6178188553 66.5590865248 86.1720634554
49204 21 51.7946563748 68.4747835203 86.9282399452
49205 22 56.0949658463 68.4123924121 84.7978688967
49206 22 54.1641153882 67.1235997752 84.4326891569
49207 22 53.1073952242 66.6525328773 87.4240013747
49208 22 53.2675355199 68.6656984406 88.7869711463
49209 23 54.2512945678 68.6408168293 86.503475294
49210 24 52.2066060608 68.6673821587 90.5483273194
49211 20 48.9648875511 62.5024484729 84.821908649
49212 20 50.3281379424 64.9641378202 84.7087253793
49213 21 47.5210993125 62.6374265376 84.3940571814
49214 21 49.0948144616 65.8537957364 84.6013415829
49215 22 48.9787314552 62.6971985288 86.189742495
49216 22 49.2643087466 61.2216067268 84.3485967937
49217 22 50.7479449793 64.8329948911 86.1009731372
49218 22 51.311335751 65.6355671675 83.9135427543
49219 23 49.7793393939 63.6272656786 84.0005348542
49220 24 49.5525051549 62.2100427694 87.8613939114
49221 20 85.2163663751 65.8999109033 77.3266506141
49222 20 87.1635863144 67.780717519 77.8754491626
49223 21 84.1107248474 66.2557366539 78.491222274
49224 21 86.308818778 68.5500831337 78.9197285209
49225 22 85.0923324779 64.5005541136 77.2021490174
49226 22 84.8487545981 66.6716150153 76.2271827193
49227 22 88.4649132969 67.7232840251 78.4969282074
49228 22 86.9909116731 68.5339942722 76.6606465805
49229 23 86.5032882142 66.3721938199 78.0226809532
49230 24 87.6768397038 68.1350466313 75.087305591
49231 20 8.1107596156 87.6860066132 12.8351041271
49232 20 9.8887378276 88.3645449924 14.9018680488
49233 21 8.7327905458 86.6758693156 11.8615222194
49234 21 11.1313498197 87.4085672925 14.7067438333
49235 22 7.2232905328 88.4464859381 12.0234023571
49236 22 7.3748438664 86.8474214782 13.7488953356
49237 22 10.3221549188 89.6263981403 15.3435634205
49238 22 8.9929530484 87.7717826945 15.7552324868
49239 23 9.3284806423 88.4038317472 13.4302049223
49240 24 18.3128002237 62.8133750751 3.9041649561
49241 20 63.370498674 85.6688188345 29.3647255858
49242 20 65.4397881728 87.6319405554 29.2111330825
49243 21 63.7636468416 84.5406341927 30.3906711252
49244 21 66.1331993949 87.1721919845 30.5260233495
49245 22 62.5436060256 84.9367756369 28.4161375374
49246 22 62.5682070173 86.5042236131 30.1048132142
49247 22 66.5118488791 87.967748769 28.3585169637
49248 22 64.5674351367 88.7239252588 29.5509635115
49249 23 64.6683646805 86.3119055944 28.7785110804
49250 24 63.9815012509 90.6993942456 29.3933487929
49251 20 67.0222960718 61.8027700781 79.9862703736
49252 20 64.4927903026 63.0094346895 80.5253407733
49253 21 68.0233599998 61.8565555162 81.2768402685
49254 21 64.437695306 62.3699959853 81.9399445654
49255 22 67.8835178607 61.960104177 78.8389100539
49256 22 66.4839739912 60.4783387421 80.0524030775
49257 22 64.0375316464 64.3386365599 80.5467614086
49258 22 63.7486804588 62.1842257591 79.7179044224
49259 23 66.0043014232 62.9881075941 80.0566123727
49260 24 62.3340766667 61.3861433975 78.9887609615
49261 20 18.3058782717 87.9876727661 55.201005095
49262 20 20.0130748471 90.2138286643 55.3862140819
49263 21 17.1509412207 88.9611424259 55.6273599244
49264 21 19.7862406081 91.3486546385 54.3585848244
49265 22 18.3981086055 87.3263457271 56.4635130222
49266 22 17.7879478877 87.0755652757 54.224261539
49267 22 19.26325907 90.7226856788 56.5510663614
49268 22 21.4223468654 90.2125191059 55.5463543776
49269 23 19.4036624484 88.9189559344 54.714317035
49270 24 15.3321515536 93.8286778046 66.3561984983
49271 20 11.4109966819 25.3112678903 84.5327768418
49272 20 9.088868854 24.1857023655 85.2160857554
49273 21 12.1597086883 24.9415046958 85.8476671087
49274 21 9.5096861218 23.5627266824 86.5704498569
49275 22 11.9045786319 26.566386166 84.2131510296
49276 22 11.7841086045 24.2420133807 83.6729581512
49277 22 7.7484889665 24.6635041357 85.421592899
49278 22 9.1912482662 23.1071874066 84.2279303326
49279 23 9.9581070118 25.3903090993 84.9507130808
49280 24 12.502373376 23.6051002536 82.1577989747
49281 20 21.3747350602 84.7373485863 27.1907649475
49282 20 21.3657552305 84.9015110974 30.0561724701
49283 21 19.8621950007 84.5069598315 26.9688883228
49284 21 19.9659307414 84.5454982671 30.3123782353
49285 22 22.0408326337 83.5159046719 27.1453980997
49286 22 21.8299001764 85.6649836989 26.2627556754
49287 22 22.1441006749 83.667906997 30.2731850204
49288 22 21.6996926463 85.8644107494 31.005228218
49289 23 21.4779095615 85.5558226445 28.5964824498
49290 24 22.7952318656 87.2179329918 26.4124195031
49291 20 21.653858099 37.125636915 50.2479742546
49292 20 23.4684384709 36.9051633887 52.3961178827
49293 21 21.2501399236 38.4648475539 50.902005182
49294 21 22.4901047367 35.8312318845 53.0756852007
49295 22 20.7511045978 36.0494604534 50.6412159621
49296 22 21.6088654108 37.4532136181 48.8195265584
49297 22 24.7559215493 36.3101561334 52.6265066376
49298 22 23.2391721947 38.1253912846 53.0976670754
49299 23 23.1212183905 36.9425793457 50.8618765682
49300 24 20.040107876 34.1926000502 50.6898567061
49301 20 55.4624490941 21.0471583572 65.6218168033
49302 20 57.078911974 23.0314200938 64.5160817358
49303 21 54.4938435087 21.7589033981 66.5726498092
49304 21 57.9841910523 22.381224302 63.3108202227
49305 22 55.5801222787 19.7699646669 66.2433893881
49306 22 54.7767081432 20.9584825392 64.3392913392
49307 22 55.8509202671 23.5166115155 63.9976836523
49308 22 57.9362050875 23.9731797301 65.0606709891
49309 23 56.8213031104 21.8436505406 65.5237869961
49310 24 54.4290203633 18.3683629197 65.9694110434
49311 20 66.6203551543 3.8149784103 87.453279361
49312 20 68.8350991857 3.6425825179 89.2201543878
49313 21 66.0012146068 95.9362251194 87.5543024448
49314 21 68.6320240794 95.7025624682 89.6150798134
49315 22 66.4741523025 4.2131580887 86.1490526418
49316 22 65.8378004148 4.5942115482 88.3408793996
49317 22 70.2543799725 3.8891574157 89.2118293374
49318 22 68.0786420762 4.4343705801 90.1724840319
49319 23 68.1859323327 3.7351963653 87.7772080083
49320 24 66.0493876513 9.2741713808 89.3369857134
49321 20 89.2567284857 86.4324785157 12.1240606353
49322 20 88.6232763347 88.7540451042 13.5355308411
49323 21 89.2968570995 86.9554600539 10.6489645948
49324 21 87.5537412054 88.0538990099 14.4179861856
49325 22 87.9473570725 85.9236215013 12.2143079235
49326 22 90.3303793702 85.4837969274 12.2376554806
49327 22 89.3418497878 89.6932791634 14.3810379281
49328 22 87.9636330137 89.4142496645 12.4421523933
49329 23 89.6170441511 87.6517710126 13.0468784434
49330 24 78.0776824099 20.0929579152 44.6454024017
49331 20 91.601025268 70.7801677074 96.7584407732
49332 20 92.3789030129 68.6489547999 95.1176575213
49333 21 90.6795637884 70.2310885393 4.2843138848
49334 21 92.3229661573 69.5692938008 93.9107122902
49335 22 90.7257724952 71.2200858212 95.7442812602
49336 22 92.3085610139 71.8378232703 3.943116838
49337 22 93.4333782195 67.7552746683 94.8775406176
49338 22 91.0494205228 68.0411325793 95.1036265375
49339 23 92.6269708074 69.6349588053 96.3000017607
49340 24 44.08201163 53.7650742074 41.5267823904
49341 20 77.5548879515 37.7119449603 17.6166763447
49342 20 79.601821416 37.7806032413 19.5710053158
49343 21 77.9125844999 36.4132370948 16.8605933948
49344 21 78.6731573647 38.2051808127 20.6965708406
49345 22 77.0568815646 38.6280746661 16.6776293653
49346 22 76.6091060998 37.2686594104 18.5403827818
49347 22 79.7215524782 36.3795627336 19.7143084309
49348 22 80.8010963759 38.50301183 19.8558342881
49349 23 78.9256215341 38.2542892562 18.2497543362
49350 24 83.7238438526 35.0729975171 18.8673982455
49351 20 71.9564318539 70.8115035714 19.0665446763
49352 20 73.1576711515 68.6347367363 20.5630894142
49353 21 71.5432661493 70.7875573589 17.546053726
49354 21 74.6052945257 68.4647747518 19.8894151094
49355 22 73.1013601363 71.7232369022 19.065983437
49356 22 70.7755842527 71.3183962481 19.6877431015
49357 22 73.2623422911 69.5822958459 21.6072752326
49358 22 72.8379517995 67.3045994669 20.926491896
49359 23 72.2299424991 69.2822198712 19.4378045091
49360 24 66.3796770112 63.7097678636 25.4184646069
49361 20 53.6276641055 9.9409143795 20.9859832676
49362 20 51.8216894037 9.4317954534 18.8098712117
49363 21 54.941151274 10.537521167 20.35814351
49364 21 50.2526512492 9.7270821856 18.8487838069
49365 22 53.8275588555 8.5244397895 21.1943901477
49366 22 53.470797706 10.6953229654 22.1861936264
49367 22 52.0980062457 9.724145033 17.4466208204
49368 22 51.9233672667 8.040838546 19.1768282094
49369 23 52.5198711603 10.3414896146 19.8577050859
49370 24 52.4920898122 9.1378931116 15.6649664907
49371 20 8.0057049625 19.5935484299 79.0151392111
49372 20 10.0041379928 20.528479654 80.6333793489
49373 21 7.8128163504 20.7210782924 77.862914817
49374 21 10.6236246379 21.2935424336 79.4359751868
49375 22 6.7172864851 19.1022769152 79.3052064173
49376 22 9.0145794715 18.6362611715 78.5276092921
49377 22 10.2315895951 21.3889531238 81.77082444
49378 22 10.8012381855 19.3463224944 80.6835167313
49379 23 8.5088747514 20.3457962442 80.2441598568
49380 24 10.2511207246 21.5827677808 83.6961560445
49381 20 84.659429856 41.1502843237 58.1646295046
49382 20 85.8175472633 38.6363997165 57.6862664951
49383 21 85.3186054775 41.9291910074 57.0078216558
49384 21 86.2273455317 38.9331082551 56.2265764748
49385 22 84.610789112 42.1251570819 59.2168597538
49386 22 83.3807395275 40.6516231575 57.6814024207
49387 22 86.9842703407 37.8708692374 58.1264652285
49388 22 84.6149984071 37.876481631 57.611621661
49389 23 85.6686317547 39.9678465444 58.5047405532
49390 24 86.0754367466 42.6302725006 62.3454885335
49391 20 23.5024869917 33.2796507007 47.5752589102
49392 20 22.4025513974 32.197487686 49.8889681477
49393 21 22.6089939399 32.5969030264 46.4756039356
49394 21 23.1905314507 32.3840062314 51.1999297392
49395 22 24.8463746252 33.2470988182 47.087074212
49396 22 22.8837206037 34.571623694 47.8431571619
49397 22 21.4108414586 33.268145294 49.873066366
49398 22 21.8737703859 30.8572481083 49.945279163
49399 23 23.4086664797 32.2582886161 48.7631220033
49400 24 20.200902951 30.2454972123 49.440350824
49401 20 25.1546821105 87.10652698 28.2367280238
49402 20 25.9865323732 84.5197747967 28.8532494544
49403 21 24.2360268276 87.4457961696 29.3933487929
49404 21 26.127496991 84.0941682865 30.3380081658
49405 22 24.288689787 86.7318997111 27.2008672558
49406 22 25.8952374383 88.3302158519 27.9710747295
49407 22 24.6843635317 84.0122273408 28.5955470509
49408 22 27.0348339469 83.8040075404 28.2646029118
49409 23 26.1541558603 86.1053695121 28.8113435826
49410 24 23.0314200938 83.2720461725 28.7507297324
49411 20 16.5572435239 27.5866257719 16.8444109934
49412 20 18.0530399426 29.5077480812 15.3490822742
49413 21 15.8421310468 26.8203469737 15.7916195049
49414 21 18.3167288992 28.392097785 14.2596231478
49415 22 15.6717013629 27.6974705444 17.9757759915
49416 22 17.8105845416 26.8845153399 17.1215696945
49417 22 17.6517538044 30.5960847288 14.5563316864
49418 22 19.2716776603 29.7644215459 16.0510056264
49419 23 16.8391727594 29.0783999753 16.2671763177
49420 24 20.1043697821 30.7799841572 17.3321279922
49421 20 19.9301985025 29.5737872452 52.4973280462
49422 20 20.5356822257 32.0686832543 53.5497453751
49423 21 21.4369390886 29.2266607047 52.3032327696
49424 21 19.6811017691 32.9206445939 54.5607245318
49425 22 19.479616841 30.0809605416 51.2268692282
49426 22 19.3325721302 28.2835915099 52.9799938908
49427 22 21.8730220668 32.181866524 54.0178189965
49428 22 20.3391549119 32.829256119 52.3630983007
49429 23 19.9237442499 30.6204051008 53.6328087996
49430 24 23.7939572963 39.9382879384 53.6550712939
49431 20 3.3325585756 96.6362776738 59.7056056914
49432 20 4.3148359517 93.9644041884 59.4568831176
49433 21 96.4332961074 3.8820315467 58.3680787705
49434 21 3.9399710915 93.3627556008 58.0942875056
49435 22 4.0026549795 4.0826624557 60.525389308
49436 22 95.6560731417 96.0691453064 60.2517851228
49437 22 5.6166961116 93.4388970731 59.778940967
49438 22 3.3531626077 93.5193413806 60.429791538
49439 23 4.211137627 95.5148279043 59.119297646
49440 24 93.4937114501 94.8509752882 64.3546318815
49441 20 44.3802168069 37.2613632988 63.3336439564
49442 20 41.8650226412 38.2265079082 63.1714457831
49443 21 44.6953527042 36.8850523119 64.7722875009
49444 21 41.2179136659 37.7167154948 64.4248803407
49445 22 45.5774338892 37.6871568889 62.7087039356
49446 22 43.9653673843 35.9791184544 62.824786942
49447 22 41.3192173693 39.5618834115 62.9110307227
49448 22 41.5211699969 37.2941022612 62.130440321
49449 23 43.3848588123 38.4371597458 63.6161344314
49450 24 44.6316520375 34.4129800366 62.0098673998
49451 20 72.5780044386 42.9564461053 49.638468316
49452 20 72.6910006286 43.1772002512 46.7715641551
49453 21 73.8604363628 42.0970015743 49.8005729495
49454 21 74.1722048241 43.3465074564 46.1818886736
49455 22 71.5677736011 41.9291910074 49.5205145117
49456 22 72.4416232755 43.8189774527 50.7149253973
49457 22 72.436010882 41.7918744454 46.7539786553
49458 22 71.9620442474 43.9119561057 45.8101611414
49459 23 72.7735963535 43.7737041448 48.2039405268
49460 24 71.5014538174 50.1670622477 48.1454780941
49461 20 56.8699438545 83.3922449342 11.3310949058
49462 20 58.8032263498 84.8485675184 12.8048907419
49463 21 57.0203560014 83.446310992 9.7501397691
49464 21 58.3481547734 85.6042763087 14.107433743
49465 22 55.4507566076 83.505428204 11.5518209898
49466 22 57.4553165009 82.1623824295 11.764577475
49467 22 59.3171345184 83.6283396225 13.3447094607
49468 22 59.7338547389 85.7527241179 12.2329036541
49469 23 57.5198590266 84.7189212276 11.922725371
49470 24 58.7495344515 80.6606929975 11.5788259567
49471 20 88.0321042149 38.870623607 62.4576428645
49472 20 87.5584182 41.0903252527 64.2433194096
49473 21 87.7241708893 37.3139327183 62.8002794902
49474 21 87.3529110565 40.8019417645 65.8395776728
49475 22 89.4383829567 39.0964289071 62.3777597964
49476 22 87.368158059 38.9969024617 61.1732466025
49477 22 88.9011833549 41.5035844971 64.1117087811
49478 22 86.5925252715 42.102426888 64.1016064727
49479 23 87.2634869194 39.73699009 63.4950002708
49480 24 90.027310119 42.7468232065 63.4476690852
49481 20 86.3704615671 68.1754558648 72.204873808
49482 20 87.4413997947 70.4570809192 73.4298722383
49483 21 87.566275551 67.4294752232 71.3054877429
49484 21 86.291420358 70.470270044 74.3853822388
49485 22 85.1085148792 67.9390805568 71.5125850646
49486 22 86.400955572 67.5385427377 73.4472706583
49487 22 88.449198595 69.7451487985 74.1042948622
49488 22 87.7745888913 71.8200506908 73.235496342
49489 23 86.8662229966 69.6770517568 72.2149761163
49490 24 36.4219363048 41.1413980339 53.3081318332
49491 20 58.3684529301 75.3774663371 11.1911498729
49492 20 58.431966517 78.083668963 10.3085074485
49493 21 59.1439921776 74.527656415 10.1271335973
49494 21 58.3319723721 78.3171445343 8.8009250034
49495 22 57.4528844637 74.4497376847 11.7484231356
49496 22 59.3619401268 75.737314303 12.1557987208
49497 22 57.7820513449 79.1865978338 10.8569786074
49498 22 59.8421739342 78.097606407 10.399353392
49499 23 57.783641523 76.6520409104 10.4667488844
49500 24 62.5773739267 71.5628159868 14.1297897772
49501 20 31.4271866724 13.5133618866 23.7448488528
49502 20 32.3494900111 15.9921690341 22.7703502542
49503 21 30.5631586867 13.5376822586 24.9720922406
49504 21 31.7788031278 17.2534609427 23.4478596946
49505 22 32.2612818926 12.3665253903 23.9234165073
49506 22 30.5423928306 13.5400207559 22.637617147
49507 22 33.677475863 16.4603361954 22.4346355805
49508 22 31.4639478501 15.8215522705 21.6279475488
49509 23 32.2348101031 14.9081352216 23.8794527579
49510 24 33.4762715545 7.3226860224 19.8369392298
49511 20 39.9138740265 60.4510250936 46.8752063558
49512 20 38.3985277703 62.5965496046 47.8058347449
49513 21 39.0890392557 59.1985259349 46.9973694552
49514 21 37.1855024461 62.3078854968 48.807740532
49515 22 41.2162299478 60.020460969 47.108775467
49516 22 39.6613163171 60.7430566375 45.5432918285
49517 22 38.8547218253 63.829311846 48.3209589321
49518 22 37.8642279051 62.6175025405 46.4992695284
49519 23 39.4092263072 61.3975552644 47.9505409584
49520 24 43.9625611875 61.715965058 41.9513599619
49521 20 5.7070837096 8.426746726 70.5750347235
49522 20 3.8890414263 8.8102322227 72.630667398
49523 21 5.8864838691 6.9297810586 71.0470370203
49524 21 96.2553832321 9.7579409961 72.1940231804
49525 22 7.0243124738 8.8711079846 70.2727137914
49526 22 4.8050785276 8.4376908934 69.4492821189
49527 22 3.4072230531 7.4676447936 72.3634239255
49528 22 4.1624398237 8.9716820769 74.0042071774
49529 23 5.1807908592 9.2309933665 71.7754321621
49530 24 92.4678594505 6.3553899955 80.2034700037
49531 20 94.7127233273 8.3983199527 68.2264351061
49532 20 93.5692916831 7.4828076102 70.6308780392
49533 21 93.3898821695 9.1244701371 67.7693056521
49534 21 92.2708644372 8.2452793348 70.583266234
49535 22 94.7504199039 7.1383001866 67.6149648297
49536 22 95.7515773718 9.3126911085 67.7983030188
49537 22 93.213091773 6.2224885165 69.9452306282
49538 22 93.8903205937 7.3094688357 72.0070369356
49539 23 94.4927175005 8.4256242472 69.7680660721
49540 24 9.5115288577 6.86072991 65.2644944145
49541 20 3.9478013159 83.7951212506 6.4086235483
49542 20 95.73576913 83.6821250606 4.2357947427
49543 21 96.6322554584 83.6840893984 7.7395933227
49544 21 96.4889523433 84.0198976119 96.5311388348
49545 22 4.1380867127 85.161739078 6.2304487613
49546 22 5.2164482662 83.2188219738 6.7744206514
49547 22 94.758183715 82.7510289721 3.8418393258
49548 22 95.0793061655 84.872326651 4.6218432324
49549 23 96.7509575818 83.0681292072 5.2216771462
49550 24 6.6806001393 83.2389330506 7.8416453453
49551 20 90.0686547514 40.6242159691 58.6866756439
49552 20 88.5301106019 42.0840930691 60.5197769145
49553 21 90.8904962457 41.5937569534 57.8789586734
49554 21 88.6808969084 43.5834440038 60.1776079882
49555 22 89.7324723783 39.629232134 57.7591340712
49556 22 90.9732790504 40.1692379326 59.6792274417
49557 22 87.2174652924 41.881766282 61.1002854864
49558 22 89.5387512612 41.8425730671 61.4817411675
49559 23 88.7371143837 41.2908747819 59.244454022
49560 24 83.8646213906 43.761356879 59.2545563304
49561 20 18.138722484 92.3311041279 66.469381768
49562 20 16.14351658 91.1913205395 64.7582565171
49563 21 18.6057671666 91.2911276047 67.5830677265
49564 21 15.7451301784 89.9405986388 65.470001558
49565 22 17.1229727929 93.079236187 67.1067625946
49566 22 19.3460418747 93.0573478522 66.0992444139
49567 22 15.2187812041 92.1664739174 65.2737548639
49568 22 16.0690588256 90.8609376397 63.3535679535
49569 23 17.6148990868 91.3612825239 65.3484932379
49570 24 18.7551503747 91.1589557368 58.4148487167
49571 20 62.2794493695 3.3174753615 88.8198971884
49572 20 63.3774206261 3.4704232814 91.4023465367
49573 21 63.1570406397 95.7178094707 88.3704380056
49574 21 63.4170815404 95.6256726767 92.1124078596
49575 22 62.8992446963 4.5061437395 88.3764245587
49576 22 61.0226473758 96.6853861173 88.306643799
49577 22 64.726172334 3.6338384087 90.804158925
49578 22 63.0568594149 4.4708043682 92.3871345234
49579 23 62.1854417777 3.2578243174 90.4744308045
49580 24 59.6021505704 14.1892811488 90.4536649484
49581 20 81.1131454569 44.0301905297 26.633267189
49582 20 80.7960452218 46.8343294228 26.4849129197
49583 21 79.9396875072 43.854335532 27.6844684993
49584 21 82.2875388054 47.2650806272 26.4913671723
49585 22 82.2947413772 44.1525407089 27.3964591708
49586 22 80.9078253931 42.8526168248 25.8551088245
49587 22 80.3059897257 47.6865713821 25.4918934224
49588 22 80.3693162328 47.0058815854 27.8235623193
49589 23 80.7708829907 45.3173929884 25.8597858191
49590 24 83.6605173455 43.3734469454 28.6229542394
49591 20 79.4722686651 74.212239898 59.9213086831
49592 20 78.5461301908 72.3539763964 61.7254125871
49593 21 78.4957121888 74.1586415397 58.6880787423
49594 21 77.0989745161 72.1496852715 61.211036719
49595 22 80.7338411933 74.4241077542 59.3806481053
49596 22 79.0008276076 75.261102711 60.77570206
49597 22 78.9434876536 70.9706149283 61.9578592196
49598 22 78.3951568046 73.2749701766 62.781290892
49599 23 79.4105323361 72.7472181039 60.4665527157
49600 24 82.3424467223 75.2596996127 54.3482018963
49601 20 10.8588961752 94.7359212206 19.8823996175
49602 20 10.8317228365 3.8146070569 21.0274214399
49603 21 11.9710948493 94.668666038 18.7678718
49604 21 11.3929341286 4.9110498716 20.1282224546
49605 22 9.7883695231 93.9712326006 19.3524025874
49606 22 11.4440910958 94.028198395 21.0308824159
49607 22 9.6830997282 4.3058280601 21.723358239
49608 22 11.8953088285 3.3657474648 21.8760153434
49609 23 10.4629792268 96.2324659585 20.0099880307
49610 24 52.5498039258 29.9585168225 18.221318209
49611 20 54.2497979296 31.4440238531 10.2123671472
49612 20 55.9734575261 31.0924073977 12.4174110917
49613 21 55.0378715227 31.0243103561 9.0075172096
49614 21 57.3629926271 30.6015100426 11.7919472475
49615 22 54.4187309752 32.8388907279 10.1729494365
49616 22 52.9683949441 31.0125243296 9.8450827598
49617 22 56.0547436925 32.5160845594 12.5570474431
49618 22 55.7311892049 30.3896421864 13.5933384946
49619 23 54.8157142783 30.6704489433 11.4446242732
49620 24 26.8777804676 40.5937219642 47.4311139361
49621 20 38.3940378554 43.1822514054 62.2265057905
49622 20 37.9224097181 45.9351304376 62.4842081939
49623 21 36.9141432184 42.7659053445 62.1918960303
49624 21 36.4736638653 46.2179015322 63.0719193376
49625 22 39.1658355073 42.1140258347 62.7509839669
49626 22 38.7698811429 43.4215264501 60.8641907981
49627 22 38.7070223353 47.0346918723 63.059384992
49628 22 37.7854673157 46.0156682849 61.0925216754
49629 23 38.343994013 44.5067762812 63.0804314678
49630 24 46.2799184808 38.6161015599 61.3459212438
49631 20 56.8989412211 78.9456390711 74.3256102475
49632 20 57.4327733868 76.5786120949 75.669591421
49633 21 56.5666875234 79.8020903255 75.6057036745
49634 21 57.0638520513 76.9877555841 77.0629616576
49635 22 55.6612213654 78.5561389593 73.6945901337
49636 22 57.5558718851 79.8666328513 73.4444644615
49637 22 56.2305986902 75.9842596189 75.1593313081
49638 22 58.4996893991 75.6119708473 75.8388986261
49639 23 57.8286342113 77.8571153437 74.9609331965
49640 24 55.1822971165 75.3107723939 73.8095506614
49641 20 54.2297803926 64.048382274 18.9396110424
49642 20 56.4545331925 65.3929246867 20.0528293014
49643 21 53.402139425 62.9015831936 19.699435588
49644 21 56.7332820717 66.3594723945 18.839149198
49645 22 55.1253313221 63.3325214777 18.0973778516
49646 22 53.1772695238 64.7491831475 18.1985880151
49647 22 56.7372107472 66.2169175985 21.2168397219
49648 22 57.3693533398 64.3272246931 19.9794004859
49649 23 54.922069136 64.9830328784 20.0012888207
49650 24 57.0239105173 62.5685811768 19.2016162809
49651 20 66.2494694811 34.4296301374 55.5616949199
49652 20 66.3974495908 34.3304778515 58.4268218229
49653 21 64.9752690673 35.2354763101 55.049751089
49654 21 65.2203435853 35.024356773 59.1939424801
49655 22 65.9846580458 33.0064206752 55.5453254388
49656 22 67.2939359192 34.8448537196 54.6788654158
49657 22 66.0657571325 32.9348626575 58.3474999942
49658 22 67.5682884235 34.6019306191 59.2204142697
49659 23 66.496321257 34.9739387711 57.0239105173
49660 24 68.4296972922 33.9844737897 53.5890321299
49661 20 36.4106179778 15.5605759708 85.5726598251
49662 20 35.0007847202 16.6054165684 87.8355769011
49663 21 34.9782416061 15.1219674155 85.0848492865
49664 21 33.9919569811 17.6569920384 87.4610431721
49665 22 37.0294779057 14.3660715453 86.0716951509
49666 22 37.0260169297 16.0466092515 84.3832065539
49667 22 34.408303042 15.3147531337 87.7107946847
49668 22 35.5099223543 16.8610610943 89.1448547745
49669 23 36.0687296712 16.7447910081 86.6290058295
49670 24 48.7825783009 36.0867828705 56.0884180538
49671 20 50.7991113004 81.0167993677 67.4998172223