ITEM: TIMESTEP
16500000
ITEM: NUMBER OF ATOMS
4000
ITEM: BOX BOUNDS pp pp pp
3.23005382 96.76994618
3.23005382 96.76994618
3.23005382 96.76994618
ITEM: ATOMS id type x y z
49081 20 24.7335655151 33.4971309505 31.5426148996
49082 20 25.5493269163 34.9194985537 29.2018726332
49083 21 25.7514666237 32.386064109 31.8908639189
49084 21 24.2917766034 35.7613575849 29.03088171
49085 22 23.6821771249 32.7482505722 30.8596801455
49086 22 24.3352726534 34.0341434725 32.7957688376
49087 22 26.6139044313 35.8311383446 28.7590547828
49088 22 25.2533666969 33.8696068019 28.3307356157
49089 23 25.5330509751 34.5721849334 30.7261051792
49090 24 18.3556414944 31.2849124962 27.790823357
49091 20 54.4582048097 57.0633843519 56.4887687931
49092 20 51.7665008672 56.3502362125 56.7262665798
49093 21 54.2413793393 58.4256993442 55.7620573694
49094 21 51.8876350278 54.8118791428 56.4649161205
49095 22 54.6852261285 55.9758895633 55.606781148
49096 22 55.5212856864 57.2759069873 57.4463366712
49097 22 50.7931247473 56.475860288 57.7434193693
49098 22 51.3856999654 56.8804203224 55.454778823
49099 23 53.143221003 56.9279385877 57.2818935404
49100 24 50.9302542295 57.9621156377 58.7011743272
49101 20 11.6022015758 17.6575532777 79.2202721951
49102 20 13.3081353628 17.9400437526 81.5076031829
49103 21 12.6193075954 17.3191259471 78.1659840683
49104 21 14.5973956991 18.5934199008 81.0827449918
49105 22 10.6134100817 18.422054818 78.5246160156
49106 22 11.2264705362 16.4025285419 79.7454051508
49107 22 13.1103920303 18.4262641131 82.8230546892
49108 22 13.6065276194 16.5071996815 81.4896435236
49109 23 12.3896203897 18.5533848268 80.3143147761
49110 24 13.6135431113 24.9837847271 79.6564487131
49111 20 93.4541440756 84.3585120223 16.9694738295
49112 20 91.8234631321 84.6716835819 19.2203242594
49113 21 93.0536062565 82.8439140852 16.7791201486
49114 21 91.7189790723 83.1454866982 19.5971964857
49115 22 94.6280697247 84.2662816884 17.7953375392
49116 22 93.653664666 84.9738174342 15.7106139581
49117 22 92.7462341702 85.2714613717 20.1748988609
49118 22 90.5023056924 85.1706253678 19.4219027274
49119 23 92.1847141964 84.8603535448 17.6800963918
49120 24 96.3298409864 83.714864023 18.3424523696
49121 20 53.1855010343 60.9620335255 61.2912939466
49122 20 53.3549017794 58.2950241146 60.6207999982
49123 21 52.3925633668 60.9202211937 62.7171225259
49124 21 52.5199647002 57.6312650384 61.7615189855
49125 22 52.1737735585 61.1475231321 60.246453349
49126 22 54.0472840626 62.0987302975 61.4523696413
49127 22 52.3268983623 58.5250387099 59.6001862327
49128 22 54.3386608273 57.3123875453 60.2554331787
49129 23 53.9576728457 59.5746498421 61.2707151703
49130 24 52.8359424566 65.9102002915 54.1733758375
49131 20 85.8498185262 45.2314298274 21.9907887913
49132 20 87.6832004164 45.9637536446 23.9979678015
49133 21 85.8617916324 46.4837419063 21.2264743308
49134 21 87.543638897 45.0163816148 25.2119285246
49135 22 84.7337940704 45.3065423609 22.8899877765
49136 22 85.7754543118 44.2565570692 20.982148132
49137 22 89.090508097 46.2783283027 23.9305255391
49138 22 86.7246971394 47.0345983324 24.3558514297
49139 23 87.2038084681 45.0801758214 22.7768980467
49140 24 83.5882110087 39.4617957267 18.3592895502
49141 20 29.0217148005 48.5500381285 81.0019265248
49142 20 26.4410427102 49.3585969581 81.4396932211
49143 21 29.1755879235 47.4618885607 82.0955014064
49144 21 26.0976577653 48.120315863 82.1708945597
49145 22 30.2961958339 49.1745104499 80.9335488635
49146 22 28.5648659662 47.9645719422 79.8037740436
49147 22 25.7953368332 50.4815433658 82.0404999497
49148 22 26.0313379817 49.2108039281 80.1027275396
49149 23 28.0031589126 49.5812219019 81.5945952828
49150 24 25.7858893041 51.620672175 80.2514559684
49151 20 49.2114587074 37.2088874192 44.4481267687
49152 20 46.9302078125 36.6794516285 42.9125758958
49153 21 48.8979129882 38.7397612976 44.5908686445
49154 21 46.7557559133 37.2147804324 41.4894599734
49155 22 50.5564688196 37.2734299449 44.2648821196
49156 22 48.7638703224 36.5828249197 45.6329030454
49157 22 46.3548439346 35.3952424462 42.8544876226
49158 22 46.2429702233 37.5541431619 43.7729558257
49159 23 48.469687361 36.7360432633 43.1998369052
49160 24 48.0339785424 35.2703666899 46.9103773553
49161 20 30.754073607 49.8850394723 43.7716462672
49162 20 29.7508582615 52.2790994773 44.5994743146
49163 21 31.1440414183 49.2653376854 45.2000004235
49164 21 28.9860761015 52.1011866021 45.9779717083
49165 22 31.9149036712 50.5320549077 43.3728857061
49166 22 30.2573767786 48.785945737 43.0167793358
49167 22 31.0676193262 52.6854367697 44.8816841698
49168 22 28.9321971235 53.2434022277 43.9218713343
49169 23 29.6241117073 50.8740367542 44.0806085317
49170 24 90.6796573283 36.3568325397 27.3706421605
49171 20 64.5451726423 83.0201432424 34.4715360092
49172 20 64.7615304133 85.6502043959 35.2420241026
49173 21 65.1573912378 82.2980152734 35.6411588233
49174 21 64.497654377 86.5392075329 33.9831642312
49175 22 65.5937548356 83.2192896732 33.4899283788
49176 22 63.4198877372 82.2115844128 34.0955991818
49177 22 64.1508084561 86.4319172763 36.2980894873
49178 22 66.2074700694 85.5094268579 35.3343479763
49179 23 63.9733632803 84.3382138656 35.0195862385
49180 24 67.9669554447 85.5127007541 34.6513196823
49181 20 5.4783506108 10.6528090843 77.690894955
49182 20 6.8804668273 10.6081624937 75.2549290781
49183 21 4.2071528276 11.2803027443 77.1577175685
49184 21 6.6334279716 12.1136309373 75.5064578487
49185 22 6.3173847373 11.5906213372 78.2959109788
49186 22 5.0222968656 9.5990821969 78.4921576729
49187 22 8.26332318 10.4285191304 75.2151746239
49188 22 6.2579401357 10.2623642196 74.0526608416
49189 23 6.1039547649 9.9200362756 76.4498076631
49190 24 5.6818372926 14.2434407465 84.144118589
49191 20 14.6022597736 86.8801604405 25.3860998042
49192 20 15.3472114763 86.5698886176 27.9612530408
49193 21 13.3179570514 85.9312917724 25.4930159011
49194 21 15.6728238416 88.0822415972 28.2925713396
49195 22 15.0419908075 86.6169391834 24.0239718916
49196 22 14.1891876089 88.1914961915 25.7111509301
49197 22 13.9854577233 86.3275267565 28.3457955383
49198 22 16.3063695326 85.8784417332 28.8020831333
49199 23 15.5433646306 86.3205112645 26.5215805575
49200 24 8.8874587578 88.6576054752 23.1331914967
49201 20 53.4138319116 70.4031084013 85.0436917338
49202 20 52.5476525083 71.4651603392 87.4500990047
49203 21 53.8536564854 69.0250787071 85.4240249362
49204 21 51.7214146391 72.7373964152 86.9377810142
49205 22 54.3696225317 70.7551925562 84.0319642581
49206 22 52.0532941772 70.2676626372 84.5972258276
49207 22 51.5782986038 70.3891709574 87.5501866895
49208 22 53.197099981 71.9673760213 88.668175483
49209 23 53.6918324716 71.2016584624 86.3342616287
49210 24 53.0852262697 72.3454642662 90.4854685118
49211 20 45.6981003503 70.4254644356 86.2290292498
49212 20 48.3954166864 70.9621027981 85.6148463166
49213 21 44.6446540826 71.5101530274 86.3210725039
49214 21 48.9216721209 72.3606177287 86.3485732322
49215 22 45.9921897719 70.173935665 87.5842352103
49216 22 45.0565102286 69.3721117077 85.5073689803
49217 22 48.7709793543 69.9981742073 86.6058079362
49218 22 49.0572114249 70.8649148499 84.3210960653
49219 23 46.8671619251 71.1704161384 85.4564832788
49220 24 46.5059108608 69.1498609235 89.0561789565
49221 20 82.8452236437 68.6720591533 79.0276735567
49222 20 82.3809851579 71.437472531 78.7450895419
49223 21 82.1725782777 68.0025006038 80.311789199
49224 21 81.2559808725 71.8203313105 79.7570040974
49225 22 84.0853755366 68.0195248642 78.8737068939
49226 22 81.8973839144 68.4398931405 77.9991089003
49227 22 83.3334083419 72.5179518277 78.6536075271
49228 22 81.7202193583 71.0787470438 77.5487143186
49229 23 83.1211663262 70.2277211031 79.3895794002
49230 24 84.5807628065 72.9592730398 77.1022484124
49231 20 8.1560984014 85.953367187 13.8068900688
49232 20 9.5350728486 86.1760856707 16.2190032731
49233 21 8.6098791272 84.5896490963 13.2753028605
49234 21 10.2622613258 84.8162962555 16.3644578057
49235 22 8.0790028221 86.8303972178 12.6476501828
49236 22 6.9559815824 85.7545949158 14.5392138861
49237 22 10.3249330536 87.2378569889 16.7252411706
49238 22 8.3408958127 85.9287661953 17.0102572226
49239 23 9.3916668396 86.3275267565 14.6919645303
49240 24 12.6962909268 56.7903414061 96.3265670902
49241 20 63.2226121042 79.1875332327 31.0080344148
49242 20 65.9751169768 79.3434642333 31.531015953
49243 21 63.0588237527 77.7081998351 31.4778852941
49244 21 65.9621149317 78.1825406292 32.6400249168
49245 22 62.3877685649 79.26816462 29.8696539248
49246 22 62.9330125975 79.9474513183 32.2058127365
49247 22 67.2162042686 79.1128883986 30.8398496883
49248 22 66.060986598 80.5794068311 32.3124482137
49249 23 64.7249563154 79.2471181442 30.6145120876
49250 24 65.8917729327 82.2961444755 31.9152778308
49251 20 62.232118184 61.7292477227 83.0875855048
49252 20 59.964898273 63.587791844 82.6570213803
49253 21 62.3220100206 61.8213845166 84.704609624
49254 21 59.3121769041 63.0983911271 84.0062407877
49255 22 63.5609458949 61.4988589678 82.6139930298
49256 22 61.3789408258 60.6042434373 82.8224934498
49257 22 59.672866729 65.0177361785 82.7172610709
49258 22 59.1814081346 62.9039216909 81.6559574522
49259 23 61.525611377 63.1425419563 82.6327010082
49260 24 57.8033784403 62.8650090957 80.4357295564
49261 20 19.7158050692 81.9171208317 57.5436181592
49262 20 19.6546299796 84.6561559598 57.2262373045
49263 21 18.2333848551 81.6740106515 58.0406891472
49264 21 18.1798800366 85.0428498748 57.4131300094
49265 22 20.402481419 82.0818445821 58.7673070311
49266 22 20.060967272 80.6875389466 56.8723758917
49267 22 20.2376641287 84.7053579432 58.5574970525
49268 22 20.1146591702 85.6757407865 56.336766468
49269 23 19.5636156643 83.1813124769 56.6022326825
49270 24 15.8261357252 93.6129748128 63.7095807838
49271 20 8.6803614361 25.7866376232 84.7974947371
49272 20 6.3765487192 24.2373363861 84.567293062
49273 21 9.4330675959 25.044679197 86.0143551968
49274 21 6.0016782466 23.6611306492 85.9581377215
49275 22 9.0794400329 27.1012472705 85.145182517
49276 22 9.3147770481 25.3359624219 83.6305845799
49277 22 5.1318788495 24.6010194876 84.0262583246
49278 22 7.0774431327 23.2280409475 83.8796813133
49279 23 7.1428929953 25.5717764905 84.9295730651
49280 24 10.360235009 24.9681635651 82.1810904079
49281 20 19.1444634067 73.4065808051 25.9971023811
49282 20 17.0348582143 73.959401569 27.8545240237
49283 21 19.4740979873 71.9125616443 26.3283271399
49284 21 16.3927068532 75.1260311065 27.0068655191
49285 22 20.4375588786 73.9450899654 25.6576461117
49286 22 18.1348873484 73.4175249725 24.9350504432
49287 22 16.1720462471 72.8691005836 27.5615570808
49288 22 16.9223297238 74.4883696603 29.2043982103
49289 23 18.6178338127 73.813385797 27.451834787
49290 24 17.1001490591 73.0023013903 23.2266378491
49291 20 25.2586984708 33.1412116601 55.2171874964
49292 20 27.1039599274 31.1653685137 55.6326916982
49293 21 25.5798209212 34.1255319474 56.4347962752
49294 21 26.3218728873 29.9165174108 55.1752816246
49295 22 24.245193737 32.2484669274 55.7305344256
49296 22 24.8242992106 33.9855962684 54.1411045746
49297 22 28.4050062902 30.8110394015 55.2342117568
49298 22 26.9062165949 31.1181308681 57.0634778918
49299 23 26.5713437803 32.406923505 54.8764216685
49300 24 23.4501981919 30.7177801288 54.9070092133
49301 20 53.0546387249 27.7452694294 70.3424945511
49302 20 54.349324375 30.2271633934 70.8947540756
49303 21 53.7601165931 26.2629427551 70.4944033363
49304 21 54.8512594374 31.1510569102 69.6913633604
49305 22 52.3249340246 27.712530467 69.0838217595
49306 22 52.2518793687 27.7718347588 71.5420501307
49307 22 53.1336799339 30.7859707103 71.2361746827
49308 22 55.4251266771 30.4715831321 71.7926435023
49309 23 54.2584971396 28.7659767348 70.3423074713
49310 24 51.8047586832 27.0229543806 67.2683995286
49311 20 66.3836992266 95.0491863201 89.1601953168
49312 20 66.3850087851 93.9872279221 91.7414286465
49313 21 64.9610510037 94.6567864717 88.7002596661
49314 21 65.3602792643 92.794220135 91.9915543186
49315 22 67.2704574062 94.9807151189 88.0671816746
49316 22 66.2061605109 96.3909225361 89.6571727649
49317 22 67.5379814983 93.6940738995 92.4501804109
49318 22 65.6292999947 95.125795492 92.2120278449
49319 23 66.6772274088 93.9153892848 90.2188798185
49320 24 68.085751108 7.083242606 89.363363963
49321 20 91.2189148078 88.2125426673 13.9914442764
49322 20 89.7087132456 86.1971321465 15.3052120646
49323 21 90.683398924 88.2391079967 12.451094807
49324 21 88.3363894848 85.8050129177 14.5163901524
49325 22 92.3520570638 87.4244690742 14.0389625418
49326 22 91.4878419983 89.5931914785 14.2661709403
49327 22 90.680779807 85.3130866238 14.8673518285
49328 22 89.3880584946 86.077681704 16.6707074133
49329 23 89.9539748434 87.6951735227 14.8136599303
49330 24 72.4216992784 22.7530453741 41.2796499948
49331 20 88.0569858263 65.0423371702 94.0766520592
49332 20 87.7557873729 62.6479965454 92.5878711324
49333 21 88.564720362 66.1703347321 93.074933352
49334 21 86.4979564403 62.3770114773 93.3881984515
49335 22 88.6425455525 65.3192152516 95.311752798
49336 22 86.6817623288 65.2666458321 94.036897605
49337 22 87.2227035264 63.2245764419 91.4296601852
49338 22 88.3978451941 61.3903526927 92.4563540438
49339 23 88.5211307722 63.6721648269 93.4931502107
49340 24 45.7864020087 48.5382521021 42.5474896959
49341 20 81.0488835508 42.7199772574 15.8469951212
49342 20 82.3429144217 42.2064432483 18.1657555129
49343 21 81.4765479387 41.8779311464 14.618348635
49344 21 81.2640253032 43.0382935111 19.0327767752
49345 22 80.7048438267 43.9835141234 15.3462760774
49346 22 80.0447328063 41.9709097994 16.4753025782
49347 22 82.0626689042 40.8114828336 18.2564892085
49348 22 83.5391025652 42.5304654355 18.9071526997
49349 23 82.3133558157 42.8511201865 16.7434814496
49350 24 86.6397629172 39.0265546076 18.3018560563
49351 20 63.0001742402 69.0295686219 20.0042820972
49352 20 62.5981397828 66.222623532 20.2694676921
49353 21 63.9008698637 69.2577124194 18.8274567115
49354 21 61.8841497844 65.7560465489 21.5620954646
49355 22 63.3228868688 70.060097616 20.8887017795
49356 22 61.6604023619 69.0600626268 19.4216221077
49357 22 61.5998820515 66.2945557092 19.2445510915
49358 22 63.4693703402 65.0983675657 19.9652759621
49359 23 63.32185793 67.6110361543 20.6164071528
49360 24 59.7933461104 58.6199817006 17.6340747647
49361 20 51.2072258508 6.0150638052 28.8054505694
49362 20 48.744226945 6.9731742146 27.5868128517
49363 21 52.2740483231 7.0848047222 28.9388384559
49364 21 47.3603977775 6.7374443319 28.2942550576
49365 22 51.5802629415 5.4494842 27.5727818679
49366 22 51.2917859135 5.1895929631 29.9475726551
49367 22 48.677345922 8.2786450144 26.9766521339
49368 22 48.8293482471 5.8950801852 26.6186749658
49369 23 49.7801812529 6.7541786186 28.7839363941
49370 24 49.0428062815 9.2639848865 25.5126592785
49371 20 6.9281534644 20.08004941 78.612917674
49372 20 8.5599007627 21.8277487589 80.0729818538
49373 21 5.7802131974 20.9019844442 77.9196935317
49374 21 8.4460346518 23.0375937267 78.9793134323
49375 22 6.2896782212 18.9007919871 79.0462879953
49376 22 7.8799218692 19.9055039709 77.5679835364
49377 22 8.5603310462 22.4238784929 81.4146245299
49378 22 9.8144484451 21.2183363602 79.8356711469
49379 23 7.3527123279 20.8670940644 79.9191087309
49380 24 8.2177973144 22.2252933014 83.1345425308
49381 20 84.6492340077 46.4023621999 62.0608466411
49382 20 85.7339225996 44.0141952081 63.072480577
49383 21 83.9728470461 45.9120260842 60.7859914481
49384 21 85.5928644419 43.0371710324 61.7937902484
49385 22 85.1466791553 47.6474717071 61.7542228739
49386 22 83.5990616362 46.4223797369 63.028142668
49387 22 86.9940920294 43.7280566774 63.5921882189
49388 22 84.6352030239 43.7628535173 63.9041437599
49389 23 85.7805990058 45.4134584579 62.398057953
49390 24 88.5051354506 49.4139725743 62.4205075272
49391 20 24.8622764069 31.6898466902 50.3997894999
49392 20 24.1963659132 29.5026033871 52.1210170592
49393 21 23.717722284 32.75891412 50.0106635477
49394 21 25.4542903857 28.5871284606 52.0354280577
49395 22 25.6124663437 31.6326002761 49.182274261
49396 22 25.5310866373 32.4647311585 51.4339665499
49397 22 24.4675380612 30.1990078858 53.3349777823
49398 22 23.072951806 28.591992535 52.167319306
49399 23 24.2091808785 30.3035854854 50.7336333758
49400 24 21.3732384219 28.300054531 52.9557670587
49401 20 19.3757875605 70.8534094431 21.7922971397
49402 20 20.9784065363 72.9860254491 21.2626742692
49403 21 20.2121277381 70.106212783 22.9485437492
49404 21 19.8450772004 73.9745550315 20.8467023678
49405 22 18.7584242709 69.7733043061 21.0776523621
49406 22 18.4125137489 71.6228685977 22.5378100818
49407 22 21.1399499304 73.2012607414 22.6742847848
49408 22 22.0081872113 73.3261364977 20.4227795757
49409 23 20.3374711938 71.6519595042 20.8416512136
49410 24 21.9534663742 73.5720528747 24.450326721
49411 20 19.6020605601 33.2337226136 25.6501629203
49412 20 21.6561030564 34.1751080903 27.4148865296
49413 21 18.5603067789 34.2224392758 25.0440244178
49414 21 22.0389618358 35.7405917288 27.145959339
49415 22 18.8053812969 32.1202237349 26.0597741089
49416 22 20.5388625821 32.8732198684 24.6301103941
49417 22 21.7654511906 34.0070169037 28.8669062787
49418 22 22.595898355 33.4031233587 26.6997740525
49419 23 20.1621774355 34.0758622645 26.8653396619
49420 24 24.3193708717 32.8314075366 26.9300692675
49421 20 23.0246852215 26.6753601406 55.1312243353
49422 20 23.8285670565 28.4124894816 57.2630920221
49423 21 24.1875731634 26.4039073729 54.1840393852
49424 21 22.7052464891 28.4050998301 58.3952988792
49425 22 22.1730980415 27.6616447656 54.5812097682
49426 22 22.4536241787 25.3687013842 55.1981053583
49427 22 25.0459887555 28.5079001718 57.9820396347
49428 22 23.5674972169 29.5330038522 56.4544396526
49429 23 23.6950856301 27.0439073165 56.5235656331
49430 24 27.4618435555 31.8529802625 58.5916391132
49431 20 6.6155057282 6.8988006462 57.1946208208
49432 20 9.286116425 6.5806153484 56.2087103554
49433 21 6.7596226404 8.4520024969 57.3380174758
49434 21 9.7590167049 5.1278846961 56.4225425493
49435 22 6.8665293834 6.4372841713 58.4696630936
49436 22 5.2958449268 6.6618828069 56.7519900502
49437 22 9.9722221815 7.0621867762 55.0291723127
49438 22 9.7054089926 7.256132389 57.4103238126
49439 23 7.6875944965 6.5288503719 56.0645653812
49440 24 94.2623287456 6.6901505623 59.9394554223
49441 20 50.0001870798 35.8017668184 66.6949064485
49442 20 47.2861271029 35.0043392361 66.2353449573
49443 21 50.4264483692 35.4434154908 68.1887385295
49444 21 46.7292841237 34.2648128471 67.4859733182
49445 22 50.6304588745 37.0001999194 66.4157834097
49446 22 50.4685413208 34.6717113788 65.948832267
49447 22 46.1533590065 35.7026145325 65.8336846595
49448 22 47.7906812823 33.9623983751 65.3309077381
49449 23 48.3833500403 35.9339386864 66.7593554343
49450 24 51.7688393645 33.2638424589 65.3943277851
49451 20 70.70842261 45.7266300175 49.6387489357
49452 20 73.0280248607 44.1703132884 49.2208126966
49453 21 71.1439443488 47.1471268229 49.249997143
49454 21 74.0582732352 45.2583693164 48.8347735609
49455 22 69.8212902708 45.8493543563 50.7680560561
49456 22 70.0560754007 45.2220758381 48.4520083213
49457 22 73.7465983138 43.216487006 49.9974744229
49458 22 72.4810971101 43.6602402554 47.9637300832
49459 23 72.0359407624 45.0769019252 50.0207658561
49460 24 74.2994190777 48.3882141147 43.9335638209
49461 20 57.8006657834 76.7333270769 4.6847207481
49462 20 56.0587659079 77.6446862482 6.7807626561
49463 21 59.198432395 77.5210265105 4.3677888848
49464 21 54.5486578857 77.3977409323 6.3999430463
49465 22 57.3702887387 76.2139000546 3.4377058332
49466 22 58.2395549584 75.6404069746 5.5244470697
49467 22 56.3677281724 76.5509242868 7.6277570274
49468 22 56.0779415859 78.9510643849 7.3832624567
49469 23 56.904272995 77.8112807964 5.4420103626
49470 24 59.4894350001 75.6152447435 7.0221142863
49471 20 90.4584354829 45.9940605698 63.5738544
49472 20 91.0678478816 48.7273897644 63.1282303528
49473 21 91.1055444582 45.4328212156 64.971246852
49474 21 92.3464446703 49.0572114249 63.991884179
49475 22 91.3246148861 45.5190649964 62.4953394411
49476 22 89.1199731631 45.4748206273 63.4349476599
49477 22 91.5348925641 48.2717569487 61.7978124638
49478 22 90.3134486497 49.9246068467 63.207178022
49479 23 90.4580613233 47.4876120311 63.9161168662
49480 24 91.3219957691 48.4962526904 59.9174735476
49481 20 83.9413241024 73.0270894618 74.2895038491
49482 20 84.7897309261 75.4133856558 75.5538825741
49483 21 85.2823119992 72.2700711129 73.9859668984
49484 21 83.4860654462 76.4044408154 75.5510763774
49485 22 83.0980619727 72.6953970035 73.182459223
49486 22 83.5796988785 72.589790465 75.5102929843
49487 22 84.7485733734 74.7205356731 76.7726138317
49488 22 85.9491578919 76.2546834477 75.3551103029
49489 23 84.5149107223 74.4732161977 74.3319709602
49490 24 41.2452273144 34.232728664 55.903115527
49491 20 63.3605834454 71.9204189953 7.5997418296
49492 20 62.2190225991 74.5145608301 7.3580441018
49493 21 64.9049270683 71.8573731078 7.763633075
49494 21 63.2962279995 75.5935434885 7.2858219509
49495 22 63.0531178192 70.7288143065 6.8989128941
49496 22 62.8277802185 71.8720588709 8.8872342621
49497 22 61.2334862932 75.0434353815 6.4873093057
49498 22 61.721109752 74.5588051992 8.6816242247
49499 23 62.9875463547 73.2211847385 6.8545188612
49500 24 60.6029338788 69.5355258997 11.8798092684
49501 20 32.6331029648 19.1058314311 26.5427205732
49502 20 34.1161779581 20.4934957343 24.5593006956
49503 21 33.2970491207 19.5330281195 27.8343194069
49504 21 35.1454909336 21.3385351219 25.3909638786
49505 22 32.2576338368 17.7678368108 26.6590841993
49506 22 31.5204459451 19.9757524301 26.2934367601
49507 22 34.864497097 20.2148403949 23.3655445893
49508 22 33.0470169884 21.3989618923 24.4174942188
49509 23 33.7888818748 19.2503505648 25.4850650103
49510 24 30.3530680885 14.4573664803 20.9830835309
49511 20 40.7098049706 52.2939723202 50.362373543
49512 20 38.2670106816 53.4100903159 50.9888102021
49513 21 40.4825030321 50.8008885584 50.4961355891
49514 21 37.3677181564 52.2114701352 51.4788656982
49515 22 42.0409711787 52.6098565367 50.740368248
49516 22 40.4506994687 52.4463488049 48.9437475355
49517 22 37.687063349 54.5299499072 51.7103769318
49518 22 38.0926523222 53.3922241964 49.5462379821
49519 23 39.6598196788 52.9458518301 51.3911252792
49520 24 42.0916698004 55.3659159252 45.1468697647
49521 20 8.3826894367 5.6691626372 69.5313166045
49522 20 6.7822686483 6.8359699005 71.4380337704
49523 21 8.3737563769 4.3283524661 70.293853807
49524 21 6.0320038797 7.8685006484 70.5103986579
49525 22 9.752824364 5.7633853708 68.9879433698
49526 22 7.3627304504 5.6139834547 68.5242661234
49527 22 5.9459191167 5.7118635981 71.5337250803
49528 22 6.9497985955 7.4860721524 72.7158822399
49529 23 8.1593629436 6.735620304 70.6899017113
49530 24 94.1763655845 7.5217482674 78.4162032803
49531 20 3.4633535363 5.5971556281 66.7775021734
49532 20 3.7281322326 3.7017081484 68.8402438798
49533 21 95.7393236459 6.3236519101 66.2944621693
49534 21 96.2465904822 96.1073095825 68.8363152043
49535 22 3.7281341034 4.6744126519 65.7131117383
49536 22 4.4947786426 6.6025130372 67.0021849949
49537 22 4.819502379 3.2673595869 68.0452483346
49538 22 4.0126843268 3.842536198 70.2654176798
49539 23 96.5644390364 4.9459963754 68.1675985138
49540 24 9.6492289332 6.6245978058 63.5242782571
49541 20 94.0007912065 81.670081976 8.5625292337
49542 20 93.1077658542 82.1094388504 6.0565206855
49543 21 93.057534932 82.5212949964 9.3794505296
49544 21 94.4852343091 82.0973722043 5.3385645957
49545 22 95.1056844151 82.5106314487 8.1986309905
49546 22 94.2894553144 80.5491934458 9.4901830542
49547 22 92.1677834759 81.4418446386 5.145329886
49548 22 92.7618553322 83.4678251672 6.2556764703
49549 23 93.1876489223 81.2556067129 7.3826918634
49550 24 96.23985561 79.8313683119 9.6718094632
49551 20 88.9458018835 44.1041805845 60.2508497239
49552 20 88.4993359773 46.9517219878 60.3844246902
49553 21 88.3833465108 43.4275130032 58.9908673738
49554 21 87.5374652641 47.5020171745 59.3050678723
49555 22 88.610835529 43.2084425753 61.369212677
49556 22 90.3916479997 44.2738619493 60.0609637424
49557 22 88.1147934798 47.6323182446 61.5939890383
49558 22 89.7537994737 47.3053963208 59.8374033997
49559 23 88.1402363305 45.4066300458 60.4809578591
49560 24 84.5961968888 49.4048992048 61.4122410275
49561 20 18.3750042521 93.1160909046 62.1213669514
49562 20 17.1592662711 91.0313673236 63.456555375
49563 21 19.7972783154 93.5449713111 62.6095516497
49564 21 17.9834462627 90.493980642 64.7735035195
49565 22 17.4576585277 93.9477540876 62.8470494364
49566 22 18.3400203324 93.2129046932 60.6863714628
49567 22 16.2852295169 91.9439425134 64.2146026627
49568 22 16.5316135934 89.8373305976 63.0021385779
49569 23 18.1716485261 91.59934155 62.5045063506
49570 24 20.2781669021 85.9943376599 59.970136507
49571 20 62.7555674216 4.3239654452 87.9019902247
49572 20 62.2291249074 4.5152638791 90.6323261428
49573 21 61.9616008153 96.4967161544 87.8334254836
49574 21 60.9035710928 3.8239292426 91.0106950074
49575 22 64.1110540018 3.8737195919 88.0411775845
49576 22 62.4863596114 5.0355421144 86.6751209965
49577 22 63.288838348 3.5935395523 90.8212767253
49578 22 62.1607472461 5.6243757368 91.5933549969
49579 23 62.0610337209 4.9196742497 89.1301690114
49580 24 58.232071767 9.9395954671 89.0864858816
49581 20 86.2139693271 50.2142998934 27.7429309321
49582 20 83.702703837 51.3580121573 28.3525304106
49583 21 86.6395758374 50.780309782 26.3507767141
49584 21 83.2908476909 51.2506283608 29.82166796
49585 22 85.6791082226 48.9220462804 27.6534132551
49586 22 87.3895786943 50.3110201421 28.5271693896
49587 22 83.2564250105 52.6975969557 28.0137289204
49588 22 83.0164951866 50.303256331 27.7596745728
49589 23 85.2632298612 51.2716748366 28.4159504576
49590 24 85.5103622568 47.1067175894 28.0666724995
49591 20 79.6777758086 75.6499480436 60.2570233568
49592 20 77.8847096119 74.4980042692 62.1150997787
49593 21 78.9030784201 75.5754902893 58.8867574736
49594 21 76.6561566657 74.3952974674 61.3050443108
49595 22 81.0353202664 75.4788635805 59.8783738725
49596 22 79.4035168442 76.9945839963 60.6343632826
49597 22 77.821196025 73.2809567297 62.8148717134
49598 22 77.7052065585 75.6905443569 62.8249740218
49599 23 79.0505908303 74.4227981957 61.0508964233
49600 24 82.0484508406 77.4568581443 54.2857172482
49601 20 10.7961776774 91.0269709486 24.6438607583
49602 20 11.2403799182 91.3883155528 27.367555344
49603 21 10.9127190293 92.4021009062 23.888900287
49604 21 11.898433061 92.7963715525 27.5971957798
49605 22 9.8494791348 90.248906124 23.9062051671
49606 22 12.162552301 90.6563658951 24.5578040573
49607 22 10.4743910937 91.0936648919 28.5125771664
49608 22 12.3756922998 90.5227909288 27.2382832128
49609 23 10.4091750807 91.5014988226 26.0430304682
49610 24 55.6004204354 31.7145412218 15.7774014413
49611 20 55.3206426173 28.9364999586 6.4763370764
49612 20 57.3659859037 29.3154300625 8.3374816067
49613 21 55.4531886448 27.4200312236 5.9781997336
49614 21 58.2965207528 28.0803293238 8.1141364057
49615 22 55.9594265422 29.7922964338 5.472990775
49616 22 53.9361586705 29.1301275358 6.4510064735
49617 22 57.8959829338 30.4673738369 7.626335221
49618 22 57.4574679184 29.464532651 9.7890897803
49619 23 55.8997480909 28.974383615 7.9525181797
49620 24 29.8768564965 36.911898261 55.224483608
49621 20 42.0473318914 36.6918924341 66.4304691728
49622 20 39.91078721 37.9762886961 65.2106154365
49623 21 41.772231068 35.4164760018 65.6823371137
49624 21 38.5233099867 37.2418134613 65.2046288834
49625 22 42.5227016244 36.2699339797 67.6974670148
49626 22 42.9752476236 37.3932545471 65.6257454788
49627 22 39.533634364 39.3334589944 65.5241611557
49628 22 40.4397553013 37.6544179265 63.9530651236
49629 23 40.6539616548 37.417668459 66.4610567176
49630 24 51.3813035905 37.685286091 64.5143980177
49631 20 54.807295688 80.1792431715 75.0823479767
49632 20 55.3649805263 77.74739305 76.4033183366
49633 21 54.9586432339 81.6015172349 75.7406817392
49634 21 54.3525047314 77.9339115953 77.5849142569
49635 22 53.4143931509 79.9496962757 75.2619445701
49636 22 55.2249513074 80.4526602769 73.7321931704
49637 22 54.6886871045 76.8519356604 75.531433
49638 22 56.5194498778 77.1921402489 77.0122630359
49639 23 55.7646764863 79.2100763468 75.8130816159
49640 24 54.6693243468 75.9933329884 74.0208572782
49641 20 47.9446479452 57.1109961571 14.960798181
49642 20 47.6296991276 54.3445538405 15.6400848793
49643 21 48.9847180083 57.190972765 13.8733969323
49644 21 46.8552823587 54.574474896 16.9769570209
49645 22 48.5917569205 57.3707564382 16.1785940396
49646 22 46.9592051791 58.1737028742 14.7102048093
49647 22 47.1550777137 53.1397600269 15.1581673538
49648 22 49.0332652124 54.248581911 15.9868372603
49649 23 47.3578722004 55.6568249904 14.8572495201
49650 24 47.0906287279 51.2304237441 15.3010027695
49651 20 68.7130296262 35.3026379528 60.6342697427
49652 20 71.3794777978 34.5874319358 61.3406830098
49653 21 68.3507496231 34.024134704 60.0050268868
49654 21 71.2611498339 33.1196974848 61.7428110071
49655 22 69.085973177 36.1330851172 59.5691309884
49656 22 67.5109484694 35.5727811619 61.3284292839
49657 22 71.6925558175 34.5498288991 59.960501898
49658 22 72.4102874116 35.0449355494 62.1446583846
49659 23 69.9022022777 35.0144415445 61.669008032
49660 24 69.4055054493 36.9723250314 58.0648224395
49661 20 33.3817962632 16.850023387 91.1285552717
49662 20 32.2862570439 14.3616751704 91.5601483351
49663 21 33.7048830514 17.2495322672 89.5459538329
49664 21 31.154704966 14.6793366449 90.5383185509
49665 22 34.2671513444 17.4712218121 91.9836969677
49666 22 32.0464207599 17.3533615478 91.2322910124
49667 22 32.5007440171 12.9696144923 91.26914573
49668 22 31.7453158464 14.4884217246 92.8620365569
49669 23 33.5015273254 15.2781790357 91.2329457916
49670 24 53.0353695071 36.172371872 58.2663073676
49671 20 50.5762057369 82.8936773079 67.4282592046