ITEM: TIMESTEP
16750000
ITEM: NUMBER OF ATOMS
4000
ITEM: BOX BOUNDS pp pp pp
3.23005382 96.76994618
3.23005382 96.76994618
3.23005382 96.76994618
ITEM: ATOMS id type x y z
49081 20 26.5044627572 35.7350728752 22.9470471109
49082 20 27.836844984 34.9380194524 20.6111689189
49083 21 26.7982715591 34.6969671498 24.0513790801
49084 21 27.1569970463 35.9369319629 19.6645452082
49085 22 25.3546704003 35.2562421662 22.3140626593
49086 22 26.4502096197 36.9274258831 23.7233346776
49087 22 29.1599667614 34.8562655865 20.0263575118
49088 22 27.0794524756 33.7098406657 20.478061652
49089 23 27.7947520324 35.5526700851 22.0381199768
49090 24 20.7606456669 32.2668942862 21.831116195
49091 20 55.2720018733 54.9936271536 51.4004792684
49092 20 52.6413794804 56.06568786 51.1987137206
49093 21 56.0290202222 55.1777136618 50.0704355389
49094 21 52.2869568283 56.1705460793 52.7744867473
49095 22 55.79629297 53.7773279333 51.8997952138
49096 22 55.5697393507 56.1175089603 52.1999647284
49097 22 53.074562722 57.3495228826 50.7819935001
49098 22 51.5089855435 55.5685233321 50.4621806081
49099 23 53.7456179098 54.903828857 51.0986260357
49100 24 52.8640979642 59.1737378634 51.073183185
49101 20 9.0354949914 16.2637153416 86.3529696072
49102 20 9.7680245965 16.9294387556 88.9641357024
49103 21 10.1914048573 15.3035283466 85.842148255
49104 21 11.0609797586 17.6266851132 89.4257550712
49105 22 8.553624236 17.0693744345 85.2501342763
49106 22 8.0606315873 15.4166180764 86.9783773275
49107 22 8.7147279926 17.4705670329 89.7035685515
49108 22 9.9589675788 15.527369309 89.2255797016
49109 23 9.6245531096 17.2195995017 87.4016453404
49110 24 11.465623979 23.207649251 85.5000728687
49111 20 90.1162665566 85.8790029726 20.0376758388
49112 20 89.6696135706 84.2124027104 22.2965706994
49113 21 88.9108179638 85.865626768 19.0241711051
49114 21 88.8563777464 83.1991785964 21.499143117
49115 22 91.006672792 84.8693333745 19.5807334646
49116 22 90.5316772186 87.2267257417 20.0474975275
49117 22 90.9802010025 83.6979333024 22.3977808629
49118 22 88.9310225805 84.2923793184 23.5464507411
49119 23 89.4726185573 85.518874387 21.4457318385
49120 24 92.1169913143 83.4675445476 19.0810433596
49121 20 55.4715224637 62.0754388643 51.8435777385
49122 20 55.028049834 59.6830625773 53.4775325782
49123 21 56.5077573912 61.3625713446 50.9514877851
49124 21 54.0965795859 59.8404902161 54.7911132867
49125 22 55.9278100586 63.4066986124 52.0778951689
49126 22 54.2275354352 62.0207180273 51.0931071821
49127 22 54.1131361468 59.2356612721 52.420157635
49128 22 56.0371581928 58.7375613453 53.8907918227
49129 23 55.5969594593 61.1921416607 53.1994384783
49130 24 56.1342526011 64.8468387951 49.9790470641
49131 20 88.4534078901 46.5163873287 21.7314026698
49132 20 90.5950037257 46.2899272493 23.5295200206
49133 21 89.2183771299 47.0693951723 20.4967696305
49134 21 90.4425337012 45.200468123 24.6473217343
49135 22 87.9603591175 47.6963930708 22.402083698
49136 22 87.4340101432 45.6315934869 21.3190788242
49137 22 91.9563833191 46.1455016555 23.1613470043
49138 22 90.3071814769 47.532885339 24.1632527913
49139 23 89.5338871868 45.7234496612 22.4568980749
49140 24 84.2542150423 41.8107695037 18.2921279075
49141 20 26.2368451252 47.9906695722 81.9825052165
49142 20 23.9048020688 49.0565566456 83.0555013217
49143 21 27.1747696259 48.432271404 83.1959047001
49144 21 24.4692217793 48.5246888177 84.3730107056
49145 22 27.1279996797 48.1323825091 80.8660130612
49146 22 25.8748457417 46.670821691 82.3123268769
49147 22 23.4314902134 50.4128850849 83.3007629195
49148 22 22.925252316 48.1538966844 82.5239141134
49149 23 25.0501045108 49.0385969863 82.0154312586
49150 24 24.5875497431 49.8221806646 80.3304971775
49151 20 35.7540614733 35.3727928721 47.769260647
49152 20 35.4883146391 35.7658474998 45.0539846516
49153 21 34.5923895501 34.2649999269 47.5688981975
49154 21 34.0360142704 36.2629184878 44.7912310939
49155 22 35.2851459929 36.0973528783 48.9414090381
49156 22 36.9838304382 34.6994927269 47.9599884875
49157 22 36.1999661402 36.5089284047 44.0176561841
49158 22 35.489343578 34.3373998036 44.9422044802
49159 23 35.8912844954 36.26095415 46.5032917438
49160 24 38.7562243186 33.9479932317 47.6052852157
49161 20 29.0038486811 55.4184853447 38.7058063167
49162 20 29.5089640998 57.9973801771 39.7158500744
49163 21 28.9720451177 54.2692542272 39.7594396642
49164 21 30.297037693 57.7397713135 41.0389718518
49165 22 30.3763595217 55.3283128885 38.3250054149
49166 22 28.0583474491 55.0302012515 37.6845377719
49167 22 30.4737345496 58.159110651 38.7233918164
49168 22 28.7009665096 59.1302418135 40.0366919052
49169 23 28.6121971518 56.6762227374 39.4998664629
49170 24 92.3881634623 36.2716176978 24.1956175941
49171 20 61.4392740564 87.7150039798 27.7634161685
49172 20 60.6398821362 90.213267425 28.7126589962
49173 21 62.9140239993 87.8837499457 27.256336412
49174 21 59.1137787924 90.0001835502 29.00478408
49175 22 60.680946149 87.9005871263 26.553290581
49176 22 61.5815482326 86.4567988877 28.3466373974
49177 22 61.1127262921 90.9385757504 29.8267191142
49178 22 60.8437991016 90.788537763 27.38841474
49179 23 61.2505105536 88.8357989701 28.873547611
49180 24 61.6817294574 90.9938578267 25.4189323064
49181 20 4.3506523765 9.9951113932 82.5719000782
49182 20 6.1426522184 10.9527915191 80.6402077611
49183 21 96.65694999 10.954615547 82.2501228485
49184 21 5.4636554937 12.3427756116 80.5534962809
49185 22 5.0859227004 10.5579783415 83.6089768648
49186 22 3.7151750867 8.8428963531 83.0541917632
49187 22 7.2736524109 11.1793077225 81.4523211066
49188 22 6.4946147713 10.6138123032 79.2968813669
49189 23 5.1355362593 9.8648570931 81.2178165964
49190 24 94.6101100654 13.141073115 88.0922503657
49191 20 10.2511862025 80.1369631402 32.3967276568
49192 20 7.952256268 79.0848264309 33.7400540509
49193 21 11.2649996179 79.0431076389 32.0346347334
49194 21 7.157120413 80.4100996259 34.1028952934
49195 22 11.0970674491 81.3288484486 32.540779091
49196 22 9.3500977114 80.1934612352 31.2863155946
49197 22 7.297879243 78.6530462878 32.5554648541
49198 22 7.6478400423 78.2014356875 34.8402702649
49199 23 9.4748892818 79.5582318262 33.6670929349
49200 24 5.278324905 83.3001081402 27.0395109415
49201 20 44.7860863998 69.3001795305 78.6403248624
49202 20 43.7714591874 71.8741167486 77.9208160104
49203 21 44.4243676361 68.9661485749 80.172788919
49204 21 44.2487932581 72.3727779147 76.5367062231
49205 22 46.1165042889 68.7428688518 78.5223710582
49206 22 43.7978374371 68.6869319962 77.7857444058
49207 22 42.5593692622 71.2113866112 77.6884629178
49208 22 43.6960660342 73.0206352092 78.7369515712
49209 23 44.8786908933 70.8690306052 78.4198513361
49210 24 42.9333417519 74.4863117826 79.4510351095
49211 20 37.1432224148 68.0893991638 77.839436304
49212 20 39.5807784698 69.0144151593 76.4448500489
49213 21 36.0351488499 68.2978995839 76.7434293853
49214 21 39.1405797363 69.1001912406 74.8499013442
49215 22 37.0293843658 69.2385367414 78.7179629731
49216 22 36.7963764939 66.8614074569 78.4894450161
49217 22 39.535411622 70.3421203915 76.949591308
49218 22 40.9291560182 68.4745964405 76.373479111
49219 23 38.5342541541 67.9973559097 77.1092639043
49220 24 37.0607202297 70.4010505237 80.1798979508
49221 20 82.1215054965 70.2349236749 81.7640895678
49222 20 81.2356827159 72.1207814447 83.4895264223
49223 21 82.3744373654 68.8225648401 82.3616224002
49224 21 80.4999914624 71.0831434188 84.4252059655
49225 22 83.0266910349 70.2654176798 80.6409560802
49226 22 80.7712571503 70.0962975544 81.3101404702
49227 22 81.7629670891 73.027744241 84.4424173057
49228 22 80.2992548534 72.7069024103 82.6034230219
49229 23 82.3673283336 71.3487031732 82.8526132952
49230 24 78.9453584514 72.4207638795 81.3657967061
49231 20 3.3873729526 86.6863457836 15.2253289966
49232 20 5.3429516166 85.0808270711 16.5601432605
49233 21 96.1038486065 85.8457027709 14.1722568884
49234 21 5.2273737256 83.6586465477 16.0293043714
49235 22 3.4850978197 88.0370618292 14.6640896424
49236 22 96.0461344929 86.619090601 16.3818562257
49237 22 6.7492116504 85.272116151 16.7823005049
49238 22 4.4872860973 85.0526715635 17.6826219689
49239 23 4.7470089624 85.9788100377 15.4123152414
49240 24 18.1853053504 56.9270967287 3.9250149981
49241 20 62.1078036671 82.4055861496 26.7400897461
49242 20 61.4350647612 83.9392662247 24.3471522197
49243 21 63.6869441299 82.2277668142 26.7513145332
49244 21 62.9330125975 84.2227856385 23.7209961803
49245 22 61.5542345841 81.1481293766 27.1969385804
49246 22 61.9466344325 83.5124436959 27.6703439756
49247 22 60.4861960931 83.72608881 23.2691985002
49248 22 61.2040212271 85.0848492865 25.1521565334
49249 23 61.7319603796 82.5953785912 25.2268013675
49250 24 60.0628345403 86.436594271 25.5656963975
49251 20 53.9204439686 62.1524221957 82.5870535408
49252 20 51.4499618715 63.4190458782 81.8015990646
49253 21 54.7062726043 62.7138486297 83.6985880817
49254 21 50.8149195422 63.9064822572 83.137816427
49255 22 54.7715634492 61.8048279557 81.4869308667
49256 22 53.2041154729 61.1315278105 83.2076907266
49257 22 51.1753287475 64.5160817358 80.8389800324
49258 22 50.8217479544 62.1706624747 81.5612015413
49259 23 52.9567959975 63.3037111909 82.1063520339
49260 24 49.66110497 61.5385198822 79.957273007
49261 20 26.4737816725 83.2476322606 58.7393386033
49262 20 26.5980961895 86.0957349032 59.0106042911
49263 21 25.2265207478 82.966638424 59.6142172165
49264 21 25.1495374164 86.6362084013 59.21143444
49265 22 27.5623989398 83.0617684945 59.693726125
49266 22 26.4219605722 82.3248612225 57.6647523198
49267 22 27.1930099049 86.0685147945 60.2961230318
49268 22 27.2101277052 87.0765006746 58.1850212012
49269 23 26.2527469069 84.7222886637 58.2999817289
49270 24 19.6528527216 89.3132265807 66.9590631045
49271 20 5.4632719801 25.3916186578 88.2548226987
49272 20 96.651711756 24.1877602431 87.0524609223
49273 21 5.3775520228 24.5147757068 89.5451119739
49274 21 95.3805046188 23.9542846718 87.9578335404
49275 22 6.012603706 26.6859301484 88.6330044835
49276 22 6.3025493104 24.7041939889 87.3097891661
49277 22 96.1215276461 24.5934427563 85.7797571468
49278 22 3.7771705212 22.8830658245 87.0163545238
49279 23 3.9830761447 25.374968557 87.7163135383
49280 24 7.8111887563 23.9191136723 86.4847673155
49281 20 20.7872109963 79.089971125 32.9313081416
49282 20 21.2798856093 81.8576294602 32.9334595591
49283 21 22.0968630292 78.3825289191 33.5221061017
49284 21 22.6020719879 81.4672874893 32.2898115598
49285 22 20.9532443052 79.1735022489 31.475359717
49286 22 19.68035345 78.3115321408 33.3965755662
49287 22 20.4551443784 82.3842590541 31.8955409135
49288 22 21.6988507872 82.7836743945 33.9142253305
49289 23 20.8069479136 80.4838090611 33.6068532442
49290 24 17.9155363008 78.2552211256 33.0038015582
49291 20 25.9996279582 27.5831647959 56.0259334057
49292 20 27.4172250269 25.1936882456 55.7744046351
49293 21 26.5621768708 28.0964181853 57.4002215043
49294 21 26.6912619223 24.3191837919 54.7267578407
49295 22 24.8106423864 26.8369035347 56.3224548645
49296 22 25.7159214646 28.7847782532 55.3588068934
49297 22 28.7863684313 24.9110106909 55.5671202337
49298 22 26.944380871 24.7305722385 57.0459859319
49299 23 27.0953542573 26.6622645556 55.304366676
49300 24 23.5721742115 26.4343078379 54.877731227
49301 20 58.1603266696 33.6336056534 62.1757136289
49302 20 57.6382805303 35.7317054391 63.9708377032
49303 21 59.5155326301 34.2204749381 61.6600282023
49304 21 56.5307682048 35.0485836052 64.9448686023
49305 22 57.4165909854 33.0539389405 61.091960436
49306 22 58.3573216829 32.7850117499 63.2242958223
49307 22 58.8832964976 35.6550962672 64.6863243398
49308 22 57.086769325 37.0798023678 63.7586892273
49309 23 57.4336152458 34.8867595914 62.6411681333
49310 24 56.3570646247 31.6324131963 60.8639101785
49311 20 70.1464349367 94.758183715 90.3868774652
49312 20 70.5621262183 93.2116886746 92.7006802426
49313 21 69.0984139827 94.1667309756 89.3267898651
49314 21 71.4819975198 92.2819021445 91.8529281982
49315 22 71.4351340337 94.3981486693 89.9392890803
49316 22 69.9430792107 96.1582888238 90.3495550482
49317 22 71.432327837 94.0974179153 93.4554536341
49318 22 69.7776071411 92.2806861259 93.4073741294
49319 23 69.6839737089 94.1251057235 91.7635040611
49320 24 70.5376187665 6.6977085856 91.0055503133
49321 20 90.885912791 91.6463921158 22.9751090786
49322 20 89.2266086404 89.3954481461 22.6426683011
49323 21 92.009513978 90.9408207078 22.1288536724
49324 21 87.6768397038 89.7364010537 23.0245916816
49325 22 91.5596806356 92.4364300467 23.9261291642
49326 22 90.1634106624 92.4684206899 22.0365297986
49327 22 89.3008793149 89.5534370243 21.2339575222
49328 22 89.4621420893 88.075506725 23.0426448809
49329 23 90.0244103823 90.4492685734 23.541306047
49330 24 83.2572668695 24.8478712635 34.6048303558
49331 20 4.424090546 49.6325753028 18.3970796667
49332 20 5.316564013 48.123776839 16.0857089265
49333 21 5.0872135509 51.0509206906 18.414197467
49334 21 5.1686680892 46.5316343312 16.2858842961
49335 22 4.3311306009 49.2873195601 19.7475150927
49336 22 96.7075550718 49.91310144 17.8330341158
49337 22 4.1087357653 48.4545338984 15.4566531504
49338 22 6.4625680042 48.2762468636 15.2010086245
49339 23 5.4139671029 48.7419819876 17.5784185288
49340 24 39.5113718697 48.2918680256 41.5843094242
49341 20 82.2579801995 46.5867293278 20.4344720622
49342 20 83.3558579161 44.0817310104 20.2376641287
49343 21 80.6883808057 46.6863493131 20.4026684988
49344 21 82.5300877463 43.4003864344 21.4918470054
49345 22 82.6661882897 47.721461762 19.6512625435
49346 22 82.6647851913 46.6272321012 21.7677896879
49347 22 83.4244226572 43.0569079497 19.2329521448
49348 22 84.5872170591 44.4288575509 20.8762609738
49349 23 82.5335487223 45.2521021436 19.6343318229
49350 24 86.9222533921 41.6259346763 16.9067085617
49351 20 65.7907498489 64.7793029929 11.1380846919
49352 20 67.455759933 62.5963625249 11.9055046768
49353 21 66.690977773 65.4088264684 9.9701736579
49354 21 68.4454119941 62.0676750532 10.8621794254
49355 22 66.130486738 65.4610217284 12.3220845874
49356 22 64.4526616887 64.9927610272 10.7135445364
49357 22 68.2315798002 63.5124922306 12.6566300125
49358 22 67.1036757781 61.4340358224 12.6402605313
49359 23 66.2192560958 63.2527319495 11.1647342072
49360 24 59.5106685557 58.7319489518 15.8889945329
49361 20 46.4150836253 95.1940796134 21.0135775358
49362 20 45.0297578194 95.1200895585 23.5098766432
49363 21 47.719684504 94.3758861749 21.0696079313
49364 21 45.3919442827 93.75450067 24.1358456029
49365 22 46.7412572299 96.3547225978 20.20174481
49366 22 45.4501260957 94.341931194 20.3836799006
49367 22 44.9279864165 96.1189085291 24.5804407113
49368 22 43.7778199001 95.0420772883 22.8605227104
49369 23 46.1991000138 95.57067122 22.5036680211
49370 24 44.8375333406 6.9092303442 18.3395526329
49371 20 5.8638004452 19.3121804337 82.5924788545
49372 20 6.0946101296 20.3279301248 85.2867083742
49373 21 6.2243499603 20.3587982893 81.4819732524
49374 21 6.6475337874 21.803334847 85.1989679551
49375 22 4.8327850437 18.5519817285 81.9287197783
49376 22 7.0487825096 18.5781728983 82.8682344572
49377 22 5.0713117692 20.3779739672 86.3236916209
49378 22 7.2609122775 19.5137589017 85.5821073543
49379 23 5.4270907498 20.2009964909 83.8070008169
49380 24 4.5146839317 21.3970910945 87.9007742061
49381 20 88.8852815732 35.8340380813 61.7448688847
49382 20 91.3503383565 34.7904135022 62.4784087206
49383 21 89.0606688713 35.7457364229 60.2987421488
49384 21 91.3847610369 33.706940929 61.3520013368
49385 22 88.2109524891 37.0887821974 61.9596364776
49386 22 88.230221707 34.6622638497 62.2304344659
49387 22 92.7555881594 35.2475429562 62.3729892619
49388 22 91.0824401048 34.0149677946 63.6093995591
49389 23 90.3459069924 35.9477825904 62.1280082838
49390 24 88.634314042 41.052722216 64.2345266598
49391 20 25.6076022693 28.1958510909 50.3670505376
49392 20 24.4789499281 26.1758571154 52.0711602966
49393 21 24.6227207426 29.288958273 49.828821997
49394 21 25.5516654136 25.0647902739 52.1244780353
49395 22 26.5215805575 27.9100867197 49.2788074299
49396 22 26.1348866425 28.80488933 51.5614614231
49397 22 24.7337525948 26.9667369053 53.257059052
49398 22 23.2445975085 25.4350211679 52.1031509398
49399 23 24.6794994573 26.9411069748 50.619608247
49400 24 21.4855798326 24.904837058 52.0527329378
49401 20 16.8077433556 76.0081122914 30.9771662503
49402 20 18.2226277675 77.220763456 28.7748630246
49403 21 17.6901987001 74.872725078 31.5600133196
49404 21 17.384416792 78.4662471228 28.3638487376
49405 22 15.4530986345 75.5569693906 31.2154123561
49406 22 17.2068780763 77.1509826963 31.7731907343
49407 22 19.2453929505 77.6843471625 29.6184993138
49408 22 18.7600144491 76.7065746677 27.5610893813
49409 23 17.0963139235 76.2336369719 29.4049477395
49410 24 20.9625047546 77.7106318723 30.2080812553
49411 20 21.4088771209 30.4794404831 19.4898126893
49412 20 22.9984005118 32.8684493339 19.7066381597
49413 21 20.5881581053 30.2705659034 18.1708066671
49414 21 22.9193593027 33.8418254538 18.4853813251
49415 22 20.498921048 30.9980256463 20.4559862374
49416 22 21.863293918 29.1768974819 19.8404937457
49417 22 22.1486841296 33.3405451707 20.7235103296
49418 22 24.354728951 32.9308404421 20.1108240346
49419 23 22.6615633594 31.4136233881 19.1769217493
49420 24 26.0899874942 32.2579144565 20.2632005193
49421 20 21.6088654108 22.1263280953 53.7528204815
49422 20 23.4816275957 23.1826740997 55.721554596
49423 21 22.6622181386 21.3385351219 52.8684943391
49424 21 23.3589967968 23.457026604 57.3002273593
49425 22 21.4568630857 23.3773306157 53.0622154562
49426 22 20.4482224264 21.290642697 53.6572227115
49427 22 24.8228961123 22.5749454191 55.651119057
49428 22 23.3755533578 24.5366640416 55.2147554592
49429 23 22.3057376089 22.1643988315 55.2039983715
49430 24 27.5575348654 23.8848780717 58.6008060227
49431 20 8.4836751044 89.7832645398 70.9032662058
49432 20 7.4250934966 87.1948286384 70.672783911
49433 21 9.9566197275 89.7523963753 70.5708254283
49434 21 8.4955827327 86.6480879676 69.5628395483
49435 22 8.3800048417 90.8119227361 71.9082588093
49436 22 7.7849695245 90.1317941787 69.7372914475
49437 22 7.263952324 86.0268895424 71.480126722
49438 22 6.3380757615 87.6031302686 69.8618865841
49439 23 8.0609963928 88.3699703061 71.4501004165
49440 24 3.6273055827 92.2272748474 68.5627110191
49441 20 45.4725756699 35.7216966706 64.0467920958
49442 20 45.7525405677 33.4085486724 65.6459500956
49443 21 46.2277232209 36.457387924 65.2207177449
49444 21 45.5157911001 34.1051402508 67.0735559328
49445 22 44.3698338788 36.5517696754 63.8369821172
49446 22 46.2114472796 35.5952307361 62.838724386
49447 22 45.2382582395 32.0694315734 65.6053537823
49448 22 47.1438529267 33.4845966049 65.3865639741
49449 23 45.0737215688 34.2958680913 64.5555555703
49450 24 46.8024323195 36.8879520485 61.4191629795
49451 20 74.2630320596 56.4014960735 49.8342473107
49452 20 73.1901294942 53.8774156181 50.3118620011
49453 21 75.2988928275 56.4835305591 51.0479274141
49454 21 72.2209626694 53.5344983727 49.1670272585
49455 22 73.7075921787 57.6953398647 49.5829991598
49456 22 75.1019913541 55.9348255505 48.7631220033
49457 22 74.4314974057 53.2967199663 49.9324641977
49458 22 72.6809918601 53.327401051 51.5085178441
49459 23 73.1460722049 55.4201690628 50.3053142086
49460 24 76.5386705609 60.2193267802 51.8319787919
49461 20 51.3863547446 73.7333156491 4.3261449247
49462 20 51.5293772401 75.0772968225 6.7983200939
49463 21 50.1106576926 72.8594659747 4.2904594557
49464 21 50.2185091885 75.0971272797 7.5416535565
49465 22 52.4066878905 72.8921113971 4.8705564522
49466 22 51.565951338 74.2240259244 96.5612586801
49467 22 52.2501021107 74.0112226693 7.3848526349
49468 22 52.0959483681 76.3570160899 7.021534339
49469 23 51.0487692731 74.8910588969 5.3476847352
49470 24 53.9147380351 71.9107843864 5.2406283283
49471 20 93.107952934 39.1331900848 63.466938303
49472 20 91.515903966 41.3324064941 64.1121764805
49473 21 94.2321153603 38.7827896481 64.4886745473
49474 21 92.6019021163 42.1270278797 64.824389221
49475 22 93.8246555892 39.9121903084 62.5131120207
49476 22 92.5788913028 37.8906996946 63.0908143959
49477 22 91.4814812856 41.8820469016 62.8012148891
49478 22 90.2891282777 41.5799130493 64.7771515753
49479 23 91.9624634121 39.8392291924 64.2557602153
49480 24 91.3793357232 42.6011815941 61.1007531859
49481 20 77.3343208853 71.0070019464 78.5922453578
49482 20 76.0205530971 73.0089427227 80.1894390198
49483 21 78.1490533478 71.641763656 77.4739759446
49484 21 74.7220323114 72.3683815398 80.9102574303
49485 22 76.7197637925 69.855900031 77.9353146937
49486 22 78.2419384609 70.7531346785 79.6438208277
49487 22 77.0900882264 72.90698424 81.1040720873
49488 22 75.6454581287 74.3665807204 79.8765480799
49489 23 76.1994013713 72.0822430091 78.9595765151
49490 24 40.1689573129 26.0236677105 59.035953602
49491 20 55.3254131518 67.5024363392 4.8186605199
49492 20 55.8472722113 70.2453066029 4.4034182298
49493 21 56.8083946053 67.0486743214 4.8513994823
49494 21 57.2282016422 70.3571803142 3.7104111
49495 22 54.617877406 66.5093233021 4.1070997525
49496 22 54.9636943881 67.7159879135 6.1766259073
49497 22 55.0038230019 71.281073831 3.9300128345
49498 22 56.1699848399 70.2250084463 5.780596711
49499 23 55.3128788062 68.8515622067 3.9164607749
49500 24 56.9614258692 65.0994900444 8.1920177201
49501 20 32.9459003648 16.452011145 28.877943986
49502 20 32.9098875062 16.5767933614 26.0428433884
49503 21 33.6989900382 17.7126482743 29.5883794684
49504 21 32.1438893277 17.9246096704 26.1202008794
49505 22 33.2722610492 15.3089536603 29.6712558131
49506 22 31.5335415301 16.7226220536 28.8580199889
49507 22 33.8237722546 16.6507834162 24.9579677168
49508 22 31.8491451269 15.6496259483 25.795523913
49509 23 33.5993700528 16.3638030265 27.4019780244
49510 24 29.9515948705 10.4365635612 21.0526772108
49511 20 39.5002406225 55.918830229 43.9679865013
49512 20 36.9963647838 57.2235246476 43.6993399304
49513 21 39.214756871 54.6237704192 44.7693427591
49514 21 35.9466601117 56.1797129887 44.2651627393
49515 22 40.6912840719 56.3719374675 44.4994801696
49516 22 39.5341020635 55.4572108602 42.6197960327
49517 22 36.4453212779 58.4783623036 44.1094188185
49518 22 37.0461280065 57.1872311694 42.2741661304
49519 23 38.3440875529 56.9246646915 44.3338210203
49520 24 42.5626431584 54.4545567539 39.8492379609
49521 20 8.4807940758 7.4028777722 76.6325846128
49522 20 6.0989316727 7.004163981 78.0381150354
49523 21 9.0938077603 6.3339132363 77.6118537459
49524 21 5.1865809785 7.0089719314 76.7813130417
49525 22 9.4035838219 8.4150729474 76.4701993597
49526 22 8.0798353272 6.5850491393 75.5532277949
49527 22 6.3898968618 5.6300442542 78.2830024736
49528 22 5.3911153072 7.5630554838 79.1278547814
49529 23 7.3471092883 7.8275956534 77.63439686
49530 24 94.3594231538 5.7406645309 83.1687781314
49531 20 4.7703003956 4.3422618481 74.285201014
49532 20 4.8648879347 95.9227553749 76.3811493822
49533 21 3.4207835313 5.0142430809 74.7190390348
49534 21 3.5362875258 96.258937748 77.081669636
49535 22 4.826443039 4.3487254547 72.8787351925
49536 22 5.7573052778 5.1524295638 74.8966712904
49537 22 5.0617800542 94.4771898783 76.4823595457
49538 22 5.7613368471 96.6188792538 77.2062647727
49539 23 4.6555737176 96.4068243178 74.9011612052
49540 24 11.839269079 6.5571555434 73.2876916019
49541 20 88.6262696112 85.8254981542 11.9285529063
49542 20 86.2628906908 86.6515489436 10.7450674802
49543 21 87.7668250802 85.5506779504 13.23227451
49544 21 86.2493274065 86.2295904892 9.2520585502
49545 22 89.8363951987 86.4620371217 12.4275040461
49546 22 88.8006279706 84.5730925354 11.3212638631
49547 22 85.592770902 85.6248550851 11.3983220264
49548 22 85.6287837605 87.9305198918 10.8037357007
49549 23 87.7090174267 86.8413413852 11.1481682923
49550 24 89.937792442 83.4662349891 10.2544975147
49551 20 92.9583826461 38.282257684 59.4074940544
49552 20 90.6624459881 39.58059139 60.5379236536
49553 21 92.5247317051 38.1478408587 57.8970118726
49554 21 89.5082572563 39.5186679813 59.5384499037
49555 22 93.6665731711 37.1248885959 59.7983972646
49556 22 93.698844434 39.4946282289 59.4690433036
49557 22 90.0521917303 39.3740553077 61.8429922318
49558 22 91.2079706403 40.8594687983 60.3500020098
49559 23 91.6021477468 38.2798256468 60.2145562457
49560 24 86.4220955876 38.3826259885 61.941022039
49561 20 20.9398681006 90.6239075525 64.6393673139
49562 20 22.6491225537 89.2449424593 66.3902470191
49563 21 21.3915722408 92.0574999428 65.1151112064
49564 21 23.6946179306 90.3095199742 66.8835764114
49565 22 19.8362844506 90.2088710501 65.4046171733
49566 22 20.6798271999 90.8274503582 63.2267278595
49567 22 21.6164421421 89.1979854333 67.376625184
49568 22 23.4148401126 88.0711103501 66.3838863064
49569 23 22.1936768178 89.7529576147 65.008569269
49570 24 27.6381662526 86.4999207781 62.1244537679
49571 20 66.2309485824 96.154640768 91.0228551934
49572 20 66.0580868613 93.578084433 92.1731152497
49573 21 65.5315508072 95.464690522 89.8089880102
49574 21 66.2753800313 92.5870292734 90.9563483299
49575 22 67.2162042686 3.3773950522 90.3924898588
49576 22 65.2476572339 3.3920022418 91.7337583753
49577 22 66.791813777 92.9529573323 93.246111355
49578 22 64.6568592738 93.6373887247 92.3320395268
49579 23 66.8157599894 94.8926940802 91.7379676705
49580 24 62.0264239607 8.2530057299 87.5080001981
49581 20 92.7166755642 50.4129786247 26.1358220414
49582 20 95.3114721783 49.94780474 27.4947695976
49583 21 92.9434162633 51.2419291508 24.9199905205
49584 21 95.3444917603 51.4336859302 27.8601364172
49585 22 92.3181020829 51.3595087955 27.1673799744
49586 22 91.6629486768 49.5188307937 25.7780319532
49587 22 94.9880112305 49.2117393271 28.705830584
49588 22 96.6229014692 49.6447354888 27.0322148299
49589 23 94.2193003951 49.7830809896 26.3750970861
49590 24 91.090110376 47.8307163563 25.6972134862
49591 20 74.4523568017 70.78662196 64.5056052678
49592 20 72.718407817 68.6187414147 64.5896040911
49593 21 73.7532396462 71.5168878997 63.2826647151
49594 21 71.6813310304 69.4033540318 63.6540180878
49595 22 75.8140170148 71.0543331319 64.2782097895
49596 22 73.8260136824 71.4002436539 65.6198524656
49597 22 72.5565838032 67.2835529911 64.1852311365
49598 22 72.1989807947 68.826119356 65.8855992998
49599 23 74.1050431814 69.2882999642 64.3047751189
49600 24 76.2054814643 75.9383315317 59.9072776993
49601 20 7.4823773267 83.6646331008 29.0306010903
49602 20 6.6980359753 83.4521104653 31.6627201214
49603 21 8.9399626994 84.2961209141 29.0001070854
49604 21 7.0302896729 84.4294152607 32.8352426721
49605 22 6.9286118099 84.1455216874 27.8460118934
49606 22 7.711522001 82.2791202151 29.0820480311
49607 22 5.3735765774 83.0485793697 31.8661693873
49608 22 7.6583071562 82.386971711 31.7591597504
49609 23 6.8382335659 84.2385938803 30.320422666
49610 24 57.180589837 38.0647774343 12.0745032003
49611 20 59.5612736374 28.9298586262 8.5114658065
49612 20 59.672866729 31.592658742 9.2440234735
49613 21 60.9413612093 28.3952781414 9.2108542277
49614 21 61.0504287238 31.8940442752 9.8409108806
49615 22 59.9331882495 29.2415335476 7.174481417
49616 22 58.7290492151 27.79690345 8.7374956024
49617 22 59.7639745842 31.7387680539 7.8562095065
49618 22 58.8553280698 32.5742663725 9.9054253444
49619 23 59.3876635972 30.1047196743 9.5408442599
49620 24 31.0123372498 30.5962718086 56.4065472277
49621 20 44.1328037916 29.6465612815 67.9800510296
49622 20 41.6944058776 28.2549683028 68.0784549964
49623 21 44.7927277322 28.7393178655 66.8498085102
49624 21 41.8399539501 26.7607620623 68.0100773351
49625 22 45.2501378058 29.9992066757 68.8104046541
49626 22 43.5286296268 30.8461168611 67.3794313808
49627 22 40.6350665966 28.4187566544 69.00515471
49628 22 41.4013453948 28.5773067719 66.7167012434
49629 23 43.087027795 28.678049236 68.61406442
49630 24 43.0787027446 37.3413399068 62.8759532631
49631 20 53.5855711539 78.1337128054 73.2064989753
49632 20 51.4396724833 76.3779690258 73.6125556481
49633 21 54.7319960747 77.3775363156 74.009726031
49634 21 49.9457468624 76.7536252335 73.7998225126
49635 22 53.8354162064 79.464504854 73.4255694033
49636 22 53.8023030845 77.5776181453 71.8450258421
49637 22 51.475591802 75.8939936227 72.2805475809
49638 22 51.5979419812 75.3800854541 74.6491647352
49639 23 52.2275589966 77.7260659545 73.9457447447
49640 24 52.2059512815 74.7891939541 71.0059730076
49641 20 48.4324584838 48.4047706757 5.0241863714
49642 20 48.8766794326 47.005413886 7.3973121486
49643 21 48.8097984096 47.9166795173 3.6161116637
49644 21 49.9975679628 47.4049227662 8.3038727234
49645 22 48.9017481238 49.7300438706 5.0099121838
49646 22 47.025337883 48.1922480402 5.2168879037
49647 22 47.6365275397 47.6348438217 7.8800528251
49648 22 48.825045412 45.5735987536 7.4471782652
49649 23 49.3356796844 47.555428453 5.9803885671
49650 24 46.5147036106 47.0939026241 9.3768407666
49651 20 68.1968765001 41.8448180245 53.4762230198
49652 20 70.7115094264 40.904087327 52.5772111143
49653 21 67.3276102804 40.6852039789 53.0681084694
49654 21 70.8026172816 39.2704131069 52.5402628568
49655 22 68.2067917287 42.7588898526 52.3432678435
49656 22 67.6746432811 42.4108279131 54.6858809078
49657 22 70.4667155281 41.3049993057 51.2805611264
49658 22 72.0818688495 41.1861101025 52.9375267797
49659 23 69.663862632 41.3157563933 53.6982867242
49660 24 67.5484579663 44.5870335089 51.9800524415
49661 20 40.4937278192 16.4130050099 15.3476791758
49662 20 38.9000886731 14.0913448815 14.5718593085
49663 21 39.6995741331 17.6134959884 15.845404943
49664 21 38.0636549556 14.8783895358 13.5137360462
49665 22 40.8127923921 16.8650833096 14.0278312946
49666 22 41.5772003924 16.350333282 16.3399503539
49667 22 39.8433449476 13.3555600882 13.773683407
49668 22 37.8909803143 13.2372321243 15.0927829691
49669 23 39.3645142387 15.3242006628 15.5388747158
49670 24 38.6351836979 36.1950085259 54.2909554822
49671 20 53.6256997677 83.3717596978 70.5053475037
49672 20 50.8988248257 84.0376701915 70.5281712374