ITEM: TIMESTEP
17250000
ITEM: NUMBER OF ATOMS
4000
ITEM: BOX BOUNDS pp pp pp
3.23005382 96.76994618
3.23005382 96.76994618
3.23005382 96.76994618
ITEM: ATOMS id type x y z
49081 20 27.9820188969 34.8051928052 19.1392251727
49082 20 28.1829425857 32.32442132 17.7294854549
49083 21 28.2836850498 34.147607362 20.5298827524
49084 21 27.2912267919 32.4019658907 16.4343321053
49085 22 26.5477717274 34.8537400094 19.1429667684
49086 22 28.6885257039 36.0794867589 19.0976934605
49087 22 29.2913903102 31.5725476652 17.3363372873
49088 22 27.3531502006 31.7199665355 18.7193245959
49089 23 28.6623345341 33.7928105502 18.1313328325
49090 24 22.1707595442 33.4444679911 22.7586577677
49091 20 51.1764512262 56.2574446393 51.2593275708
49092 20 52.4199705552 53.8372870043 52.5058401764
49093 21 50.3559192904 56.9451499279 52.3775034441
49094 21 52.848570342 52.8341651986 51.3466002904
49095 22 50.3479683996 56.3518263907 50.0807249271
49096 22 52.3882605317 56.9078275109 51.2047938136
49097 22 53.5890321299 54.5608180717 52.7540015108
49098 22 51.9941769652 52.9913122178 53.5880031911
49099 23 51.2466996854 54.6750302802 51.7966207125
49100 24 53.5965153213 57.9247932206 52.2977139159
49101 20 10.3543232878 21.8849016331 83.5146886533
49102 20 11.0237602355 22.2975996382 86.1570035327
49103 21 11.7690486818 21.4155184533 83.3239608128
49104 21 12.4779407561 21.9476669009 85.8767580152
49105 22 10.0104332275 22.5096545742 82.2312277902
49106 22 9.4915300287 20.7381025528 83.7257146505
49107 22 10.967720486 23.3862169055 87.11522619
49108 22 10.4873183068 21.0303211765 86.5961733273
49109 23 10.4990388553 22.8080468308 84.7600787802
49110 24 12.2822927172 29.2023403327 82.2041947613
49111 20 83.8232767582 88.6625630894 29.0973885734
49112 20 83.453232944 88.9393476309 31.9518519287
49113 21 83.1533440491 87.5269887962 28.1973477291
49114 21 84.4318472979 88.0133026966 32.6625680308
49115 22 85.2239431064 88.4475148769 28.9511857217
49116 22 83.3291055069 89.8842876236 28.5837610245
49117 22 84.0434696648 90.2728523364 32.0390311084
49118 22 82.3291640575 88.7696662662 32.8385165684
49119 23 83.2040426708 88.2684795229 30.5325711419
49120 24 87.0033524788 88.4738931266 28.7073272223
49121 20 56.3203969869 57.3402624333 51.2588598714
49122 20 58.0237584267 55.6498094985 52.6687866689
49123 21 55.7556031168 56.2448167538 50.4066179121
49124 21 59.0300605887 54.6634313336 51.9995087391
49125 22 56.3631447177 58.4741530084 50.4207424358
49126 22 55.2903356922 57.2838578782 52.2408416614
49127 22 58.6906043194 56.0408997885 53.8233495603
49128 22 56.8477749 54.8771699876 52.9721365398
49129 23 57.7729779753 56.7959537996 51.6053316327
49130 24 54.3195786893 60.2248456338 45.624577995
49131 20 85.8704908424 45.4710790316 26.5453396902
49132 20 87.5021071848 43.7963407988 28.1646087668
49133 21 86.7786696573 46.0801172707 25.3813292697
49134 21 86.6557582388 42.9889979878 29.2097299842
49135 22 85.7766703304 46.4592344545 27.4860703876
49136 22 84.6307131091 45.151827379 25.9146937359
49137 22 88.5096253654 42.9134177548 27.7737055567
49138 22 88.0563310471 44.9586675012 28.7922614446
49139 23 86.5433232881 44.1127862546 26.9085550922
49140 24 78.8097256075 45.4507808749 25.2963950474
49141 20 25.6259360882 51.9829521781 84.3480355543
49142 20 27.3640008281 54.1306281067 84.450835896
49143 21 25.2242757904 51.9786493431 85.7610491683
49144 21 26.9037845577 54.6919610008 85.9789035776
49145 22 25.5935712854 50.5866822049 84.043282585
49146 22 24.7241179859 52.7569012475 83.6236626279
49147 22 28.7958159605 54.3837470554 84.4563547497
49148 22 26.548987746 54.8795084849 83.5568751448
49149 23 27.0777687575 52.6124756537 84.4735660899
49150 24 26.340393786 55.3488916648 81.784761884
49151 20 39.7727223289 38.2758034315 57.1705810685
49152 20 38.14671838 37.6291621556 54.9042965564
49153 21 39.4567445725 37.0946752106 58.028716041
49154 21 37.8603927695 38.6441635276 53.7075471736
49155 22 39.8660751415 39.3109158803 58.1274941674
49156 22 41.00576519 37.9388727392 56.5451733482
49157 22 39.2330906899 36.8378146662 54.4365970946
49158 22 36.9958035444 36.8630704372 55.1008238703
49159 23 38.57251197 38.5433275236 56.1946793715
49160 24 42.4950138163 37.048279424 56.4881140139
49161 20 29.1631471178 63.0814604066 46.2707515714
49162 20 30.93395082 64.9212030096 47.3855600085
49163 21 29.0962660947 61.8424309924 47.399029753
49164 21 31.7902149947 63.8285635269 48.0634436085
49165 22 30.0960204643 62.6949535714 45.2641687897
49166 22 27.8130858513 63.2850032124 45.845238601
49167 22 31.6064091062 65.1732930195 46.1693543281
49168 22 30.8747400682 65.9928895563 48.2701667706
49169 23 29.5360906686 64.2771808507 47.2393571568
49170 24 82.2930576591 35.3802760635 29.5701391894
49171 20 59.9877220067 83.8505904068 34.6747046554
49172 20 58.3897800255 85.5542324663 33.357662971
49173 21 60.8466988383 84.4368049122 35.7948448664
49174 21 59.4472485087 86.6524843425 33.3813285637
49175 22 60.7512881481 83.7728587562 33.5046141419
49176 22 59.729364824 82.5426220919 35.1681275876
49177 22 58.5710603369 84.9415461714 32.1221880727
49178 22 57.1181051889 86.2295904892 33.4082680527
49179 23 58.7068802606 84.7366002672 34.6367274591
49180 24 59.1599874992 85.4988568501 30.3888003274
49181 20 4.5807418037 16.2750336686 80.8754605904
49182 20 6.5006574484 16.7767816512 78.8685621998
49183 21 96.5947459616 16.6956825646 80.5157997043
49184 21 6.0923371103 18.1932562413 78.3806581212
49185 22 5.1410457589 17.3320344523 81.6090939662
49186 22 4.5761864109 15.0433939059 81.5785999612
49187 22 7.6340242002 16.9120403356 79.7440020524
49188 22 6.7843545879 16.2054399887 77.6037157753
49189 23 5.2097508099 16.0448319935 79.4331689901
49190 24 95.8301508814 19.2721453597 86.8733320284
49191 20 6.2553397267 87.9930980798 32.9998728827
49192 20 8.6731027405 86.7414407802 32.2214338985
49193 21 5.6584523195 88.9982777631 31.9230416418
49194 21 9.2206478544 87.3649777026 30.9469528651
49195 22 5.8529685257 88.5925017101 34.2669642646
49196 22 5.5570737842 86.7806339951 32.6959617724
49197 22 9.8280959154 86.4801838608 33.0094139517
49198 22 8.0016546851 85.5882809871 31.7697297583
49199 23 7.8400832291 87.9583012399 32.7940851195
49200 24 93.9235272555 90.977956045 36.0471219561
49201 20 46.5512777086 68.4645876721 70.6091767842
49202 20 46.4433326728 69.5349646603 73.1877909969
49203 21 45.4180419126 67.4926146505 70.4785015546
49204 21 47.5822744022 70.4940291767 73.3792671565
49205 22 47.635405061 67.9039095572 69.8165197363
49206 22 46.0264253725 69.7156837324 70.1458736973
49207 22 45.3076648396 70.3670955428 72.860962613
49208 22 46.2851567148 68.863535313 74.4136312863
49209 23 46.9780066975 68.5039679667 72.1348124286
49210 24 45.3678109904 68.3822725668 76.1382262817
49211 20 39.2271976767 70.7192732375 70.562406838
49212 20 42.0291851523 70.8274053531 70.2555024512
49213 21 38.5995449989 71.6384897597 69.4681771772
49214 21 42.1896060677 72.366510742 70.1725325667
49215 22 39.2993169337 71.604347699 71.7158472507
49216 22 38.3358560424 69.610825513 70.5532399286
49217 22 42.3323479434 70.4534328634 71.6006996432
49218 22 43.0537275933 70.4437047146 69.3346022109
49219 23 40.5832454962 70.4362215232 69.8358824941
49220 24 39.4816261839 70.4611966745 73.438852068
49221 20 80.2340575485 71.9733625744 93.2464855145
49222 20 79.063873495 74.5400036808 92.8580143416
49223 21 79.5141745369 70.7879315185 94.1682276139
49224 21 79.9132157177 75.7053236599 93.5010075617
49225 22 81.6175125565 71.9504453007 93.7343895931
49226 22 79.960733983 71.4460782011 91.9190609021
49227 22 79.4481353729 74.5530057259 91.4971959875
49228 22 77.6657327239 74.8019153794 92.9422002447
49229 23 79.5369047307 73.2803954903 93.6758336205
49230 24 80.7360861508 73.980260965 90.4257900604
49231 20 91.4777396899 91.1470761704 24.0807506063
49232 20 93.4490929214 90.9038724503 26.0544423351
49233 21 91.6303032544 90.0036445262 23.0795931384
49234 21 94.1560674279 89.6046968853 25.7249012943
49235 22 91.0006862389 92.2546820359 23.251051761
49236 22 90.4927646234 90.7166055858 25.0118466948
49237 22 94.4449186155 91.7668714972 26.6197974445
49238 22 92.4887188465 90.4576871637 26.9967632107
49239 23 92.9050649074 91.3894380315 24.684924771
49240 24 32.4878355119 47.2566620368 7.0783972396
49241 20 62.4191044288 81.1346596321 36.9392119095
49242 20 63.3183034141 80.9006228214 34.2202878583
49243 21 63.3140941189 80.5679014243 37.9840525072
49244 21 64.0111533968 82.2519001065 34.5480516411
49245 22 61.1074880582 80.7931454851 37.3079461652
49246 22 62.7124455313 82.5620783895 36.8445495385
49247 22 64.2928955526 80.0219090726 33.7824276222
49248 22 62.3775727166 81.264212383 33.2619716611
49249 23 62.7228284593 80.3232010659 35.6130033157
49250 24 60.6367953198 82.1291757677 32.5667831811
49251 20 53.4881025861 58.1631328663 67.1929128354
49252 20 51.8663079323 60.2935974547 68.1136259959
49253 21 54.5683948029 57.5735509248 68.1307437962
49254 21 51.6611749484 59.9048456621 69.5681713221
49255 22 54.1527035213 58.1690258796 65.9403201368
49256 22 52.3124932189 57.3570996139 67.3499663147
49257 22 52.036924696 61.6945444226 68.0459031139
49258 22 50.7210990302 59.8217822377 67.3482825966
49259 23 53.2400347915 59.5724984245 67.6854003687
49260 24 49.5615785245 61.1058043401 66.3031613793
49261 20 24.9919226978 90.132448958 48.5203859826
49262 20 25.3387686186 92.7819664091 47.6470040077
49263 21 23.4006220489 89.9698766251 48.7580708491
49264 21 23.8794527579 93.4267368871 47.8222042261
49265 22 25.5986224396 90.509601804 49.7413621976
49266 22 25.3250182545 88.8413178237 48.1384626021
49267 22 26.0206744339 93.078394328 48.8932359936
49268 22 25.872881404 93.5653630076 46.563063735
49269 23 25.0588972607 91.2398677436 47.36685203
49270 24 19.941890989 5.765770638 55.6109904432
49271 20 6.8608795739 31.0099987525 85.4489065475
49272 20 4.3634392798 29.7131616848 85.1235748019
49273 21 7.2876740407 30.5841116226 86.9346006579
49274 21 96.6096188045 29.9565524848 85.9689883491
49275 22 7.121453652 32.3975695158 85.2064511465
49276 22 7.5158739621 30.0457895421 84.6326774468
49277 22 3.9460465075 29.7954767901 83.760043791
49278 22 4.8149189242 28.4567338507 85.6456209412
49279 23 5.304366411 30.8897999908 85.5072754404
49280 24 9.1849249695 29.7080169908 83.8933381376
49281 20 9.8327167861 83.2174188754 22.8949453908
49282 20 9.6951008964 82.8121105218 25.591326328
49283 21 8.9818124472 84.4486844785 22.7738112302
49284 21 8.3820720734 83.6719292124 25.7197566002
49285 22 8.9077288525 82.175852174 22.8551909366
49286 22 10.7751686175 83.1306138553 21.7545070232
49287 22 9.3612383126 81.4044286817 25.4341793088
49288 22 10.3869032323 83.0668196487 26.8036968729
49289 23 10.462801501 83.3784010301 24.3444395628
49290 24 12.0939688519 83.2418327873 27.6777336271
49291 20 17.4475562194 20.9845801692 52.7129374981
49292 20 19.922808851 19.7549047442 53.03284393
49293 21 17.1754486725 21.8506660325 53.9906924277
49294 21 19.4627796604 18.4985704499 52.3484125376
49295 22 16.9075504208 19.7163663085 53.042384999
49296 22 16.740488173 21.629537727 51.6565914937
49297 22 21.2920457954 19.8808094393 52.6092017575
49298 22 19.6839079659 19.6659483066 54.420601773
49299 23 19.0011602916 20.9540861643 52.5073368147
49300 24 16.3463110666 18.2561150489 51.9090556632
49301 20 64.5750118679 29.5680813118 70.2772037062
49302 20 65.7313520173 30.4095661835 67.8979230041
49303 21 65.1143628873 30.7927055826 71.0123337203
49304 21 67.2883235256 30.4694317146 68.080512874
49305 22 64.9679729557 28.4703906749 71.1109247668
49306 22 63.1746261394 29.7735884553 70.1108897776
49307 22 65.6084405987 29.9330739718 66.4974437357
49308 22 65.2305394336 31.7382068145 68.1797586998
49309 23 65.4276279868 29.3668770033 68.9920591251
49310 24 64.1949592853 29.4563011404 65.4212672741
49311 20 68.4581334195 88.0888829296 89.1157638679
49312 20 69.841120728 88.1115195836 91.5422822156
49313 21 67.0595249489 87.4763837144 89.592817319
49314 21 69.986294641 86.777173019 92.2990199448
49315 22 68.6848741186 87.5734781227 87.7959159867
49316 22 68.2142749201 89.5221947002 89.1671172688
49317 22 71.1314100032 88.7755592794 91.6103792573
49318 22 68.7801912689 88.7862228271 92.205854212
49319 23 69.4910944508 87.5516833278 90.1528406545
49320 24 69.2835294297 93.8660937615 87.1875325268
49321 20 83.255957311 93.2569619825 30.6596918556
49322 20 80.8910817524 91.6967165779 30.9056082326
49323 21 82.9984419874 94.754722739 30.5118052858
49324 21 79.8192081258 92.7206977796 30.6334071459
49325 22 83.3438848099 92.826397858 29.280259063
49326 22 84.5599034105 93.2728637642 31.3312147429
49327 22 81.0846157897 91.1241588968 29.6069003671
49328 22 80.4415290297 90.7874152843 31.9250059796
49329 23 82.0325490589 92.644743387 31.4730212197
49330 24 79.6841365213 21.7878072249 37.5293550904
49331 20 3.6399933337 44.2916345288 12.2623219502
49332 20 4.7908324019 46.5095589166 10.9884115101
49333 21 3.844479957 42.8955516353 11.6181781895
49334 21 5.9872824571 46.0834847069 10.0053914273
49335 22 95.7992827169 44.1824734744 12.709199432
49336 22 4.554438386 44.3855485808 13.3751099257
49337 22 4.1458963583 47.6266123111 10.3357369112
49338 22 5.4050621051 46.7695062774 12.2059080411
49339 23 3.8207863022 45.3163640496 11.1151393563
49340 24 26.7452344402 55.4309261504 39.6843271306
49341 20 80.5529350415 50.0615492492 26.1490111663
49342 20 80.7268257014 47.278269752 26.7255910628
49343 21 79.4665627316 50.8138906034 26.8517763776
49344 21 80.9178341616 46.550903549 28.0657371006
49345 22 79.9860832938 49.6948728711 24.8991311245
49346 22 81.6143322001 51.0243553612 25.9425686238
49347 22 79.3728357595 46.8031806387 26.3450707806
49348 22 81.7460363686 46.6753116058 25.9605282831
49349 23 80.907918933 48.8101725692 27.0206158833
49350 24 80.5440487517 43.5135697042 23.4662870534
49351 20 63.9715860223 64.3938250964 16.0380971213
49352 20 62.7241380178 62.4131178757 17.6353843232
49353 21 64.953006573 63.7333399165 15.085019158
49354 21 61.6225187055 63.3895808121 18.3189738566
49355 22 64.6619104279 65.5745791577 16.3073984714
49356 22 62.7348015655 64.7233661372 15.3671354734
49357 22 62.099197997 61.8151173439 16.5285267769
49358 22 63.1138252094 61.4523696413 18.6388802885
49359 23 63.8720595769 63.3890195727 17.2384945599
49360 24 53.7283130297 61.0317207453 14.5091875807
49361 20 45.9270860068 4.5945669998 13.3465802585
49362 20 48.7120492221 5.1529440333 13.0943031688
49363 21 45.6378606597 6.106470988 13.9309239661
49364 21 48.8003508805 6.4290245988 13.9628210694
49365 22 45.1211462943 3.6564142618 14.0289537733
49366 22 45.6447826117 4.6697730733 11.9685318563
49367 22 49.9880268938 4.5086880246 13.3052356261
49368 22 48.5429290967 5.5707025465 11.788888493
49369 23 47.4356973908 4.4935345621 13.7870596116
49370 24 49.4277229385 11.4170767749 10.9274609163
49371 20 6.6073116337 24.4690346995 80.7373021694
49372 20 7.2708649221 25.9672631554 82.9325899032
49373 21 7.2934454521 25.5234163661 79.8304329129
49374 21 7.8695389412 26.9441002513 81.989894868
49375 22 5.471222871 24.0554012955 80.0278956257
49376 22 7.5578359578 23.4516012903 80.9529116212
49377 22 6.6368795936 26.7897594289 83.945159238
49378 22 8.3527379631 25.0868656885 83.330695685
49379 23 6.1745306137 25.2476607635 82.0594885479
49380 24 6.1602657801 27.1786047615 85.7163370998
49381 20 5.1922027261 36.2172710203 53.9736681673
49382 20 8.0786006006 36.1658240795 53.3462961093
49383 21 4.4037830353 34.8456955786 53.801928925
49384 21 8.5577025753 37.5953942544 53.0238641003
49385 22 4.3155936248 37.2336754907 53.6059628505
49386 22 5.4974327488 36.2871453199 55.3686285821
49387 22 8.3797242221 36.0447834588 54.7094529606
49388 22 8.8425221935 35.3549267526 52.4300728636
49389 23 6.5078787281 36.1303724603 52.9799003509
49390 24 93.7460820796 40.9378552281 59.2810281199
49391 20 18.1598624997 20.2046445467 47.889178789
49392 20 17.5904851749 17.8592252856 49.2620637892
49393 21 17.2893802614 20.8780382318 46.8206725986
49394 21 18.9427913987 17.0558111502 49.2844198234
49395 22 19.4516484132 20.3930338899 47.4321428749
49396 22 17.9239548911 20.9069420585 49.0954692409
49397 22 17.6392194588 18.537576585 50.4595614911
49398 22 16.4796989531 16.9993130552 49.2170711009
49399 23 17.791128244 18.7002424578 47.9163988977
49400 24 15.0926894292 15.5067905327 49.5908565108
49401 20 12.362409635 80.469123298 28.1884614394
49402 20 12.8888895652 77.8608569394 28.9409898734
49403 21 11.2729411547 80.6909063827 29.2037434311
49404 21 11.7902728834 77.7166184254 30.0818024006
49405 22 11.6346599185 80.0379043942 26.9915249767
49406 22 12.9688661732 81.7391144165 28.0709753346
49407 22 12.3392304497 77.3765073768 27.6856845179
49408 22 14.016138808 77.1397579092 29.3820304659
49409 23 13.2815700333 79.3710585015 28.8525011352
49410 24 10.7483507304 80.0161095993 25.2965821272
49411 20 21.2122562672 31.9702792875 20.1576875207
49412 20 23.3888360225 31.4549680205 18.5416923403
49413 21 20.2301809373 32.6798729109 19.099003019
49414 21 23.2045624345 31.4712439617 16.9842531325
49415 22 21.8223234451 32.9835034015 20.933413848
49416 22 20.2675033543 31.2449709621 20.9489414702
49417 22 23.8467137956 32.7577916413 18.9484973322
49418 22 24.4179619182 30.5284553867 18.6815344794
49419 23 22.1325017282 30.9680928807 19.3111514948
49420 24 26.34563202 30.0550499914 19.0534490914
49421 20 17.300137349 13.986580202 51.1020870118
49422 20 17.9885909568 15.5894797975 53.3625720505
49423 21 18.2009265124 14.4057324597 49.8616544992
49424 21 17.2087488742 14.9838089945 54.485799078
49425 22 16.1176060298 14.7540750189 50.932405647
49426 22 17.0645103601 12.6338998186 51.0013445477
49427 22 19.2390322378 16.0630722725 53.9323235349
49428 22 17.1272756279 16.6149576375 52.8392163528
49429 23 18.1424640797 14.3876792605 52.334100934
49430 24 19.7188918856 20.1734957625 56.4125337808
49431 20 11.5653655662 96.4845559684 71.4547774111
49432 20 11.534310322 94.7145005852 69.2473294913
49433 21 13.2204884836 96.4598614368 71.4729241502
49434 21 12.0596397114 93.1883972414 69.6100771939
49435 22 11.2376391994 96.503170407 72.8693812033
49436 22 11.211887667 4.150017726 70.7273176682
49437 22 10.4127015346 94.5347169121 68.449901909
49438 22 12.6349287574 95.3331734333 68.6505449781
49439 23 11.1424436509 95.2266314959 70.7513574206
49440 24 5.9764598916 95.8978737635 66.8283878749
49441 20 56.1879444993 40.7402989755 69.4633131028
49442 20 55.7105168887 37.9730147999 69.3808109177
49443 21 56.9506687816 41.3705707702 70.661465584
49444 21 57.1263366994 37.4869815192 69.8208225714
49445 22 55.2107332438 41.6811232128 69.3871716304
49446 22 57.0830277293 40.7173817019 68.3540235193
49447 22 54.7953225818 37.0782121896 69.9774083512
49448 22 55.7842263238 38.0324126316 67.978835011
49449 23 55.6345624961 39.3652625578 70.0516790257
49450 24 57.5043314045 41.7828010758 66.8730064035
49451 20 72.6145785365 71.211573691 48.9260684958
49452 20 72.2046867282 68.4942398179 49.4571880046
49453 21 73.8992554182 70.8721174216 48.0446420901
49454 21 71.1536724976 68.2197937737 50.6688102304
49455 22 73.1272706865 71.6345610842 50.2176673295
49456 22 72.0495975866 72.2757770464 48.1590413784
49457 22 71.9253766096 67.4211501728 48.6109325984
49458 22 73.4815062589 68.4138890504 50.1160830064
49459 23 71.7413836413 69.8887325332 48.8896814777
49460 24 71.5422372105 63.653831008 43.213867889
49461 20 55.508657801 76.4344671208 96.4001829855
49462 20 55.7730015368 77.2481706444 5.6211299025
49463 21 54.0364334351 76.8276152884 96.1970143393
49464 21 54.6287280335 78.2376356258 5.9908369731
49465 22 55.4945332772 75.0694394716 3.2347211332
49466 22 56.0941239872 76.6978754577 95.1420714332
49467 22 55.3587133535 75.938986311 5.9803417971
49468 22 56.7917445045 77.7712457225 6.437574145
49469 23 56.0747612295 77.3428330155 4.0566134664
49470 24 55.5593564226 73.5829035022 4.2810680506
49471 20 4.870696762 40.1179780716 61.3078505076
49472 20 96.5089698803 42.1153353932 60.6493296654
49473 21 5.3760647385 40.5272151007 62.7777363761
49474 21 96.1341555316 42.5068933826 62.1035943719
49475 22 6.0615718397 39.7180014919 60.672246939
49476 22 3.8708095659 39.1231813164 61.4338487426
49477 22 96.6414223679 43.3704536689 59.9941762593
49478 22 95.3967805601 41.3686999724 60.1802271052
49479 23 4.3659461489 41.4422223278 60.6822557075
49480 24 3.8458821199 42.5999655755 58.4227996075
49481 20 81.9948524822 72.209176643 88.3454628543
49482 20 80.7013828507 74.4063351747 87.3043638524
49483 21 83.4678251672 72.5832426726 88.6527414008
49484 21 79.2532917771 73.8375190892 87.1299119531
49485 22 82.0022421337 70.8894223017 87.8485789461
49486 22 81.278991686 72.3521991384 89.6278947786
49487 22 80.7066210847 74.9286619336 88.6301047468
49488 22 80.9458025894 75.2382789773 86.1571906125
49489 23 81.5877668707 73.1289544046 87.1156003496
49490 24 45.9446715066 34.5095132055 62.7160935871
49491 20 52.7874887923 69.2540643636 96.7589084727
49492 20 55.2674184186 70.5222782242 3.7673132874
49493 21 52.7748609068 68.0866865069 95.7561608266
49494 21 56.45668461 69.7094165596 96.7213054359
49495 22 51.5604324843 69.9587003727 96.4119690119
49496 22 52.7448346014 68.661863305 4.5100443531
49497 22 55.5784385607 71.89890482 3.6390981569
49498 22 55.2430045066 70.1349295299 5.1465084887
49499 23 54.1116395086 70.1034065862 96.3995282062
49500 24 53.0262961375 67.4566953319 6.1017378694
49501 20 21.850291873 20.0833233063 18.6812538597
49502 20 21.5081229467 20.3866731772 15.903680296
49503 21 21.5522737759 21.5477838611 19.1930106108
49504 21 21.798096613 21.723358239 15.2112044728
49505 22 22.8547232371 19.5930807304 19.5247030691
49506 22 20.6004118312 19.4465037191 18.8021074006
49507 22 21.8763895029 19.4195642301 14.9000907908
49508 22 20.1068018193 20.3677781189 16.2757819878
49509 23 22.4545595776 20.2595524635 17.2417684562
49510 24 13.6021312444 12.2517706504 12.7993718882
49511 20 34.1781013669 56.1950535311 45.0598776648
49512 20 36.5890920924 57.5257520398 44.810313232
49513 21 33.4153770846 57.0081958154 46.1358670466
49514 21 36.164514521 59.0496104262 45.0642740397
49515 22 33.9507994284 54.7632383987 45.2844669463
49516 22 33.6075080235 56.7256118006 43.8335696759
49517 22 37.8565576339 57.4729955405 45.3232860017
49518 22 36.5250172662 57.3745915737 43.3688634907
49519 23 35.618802789 56.6162636664 45.4778139038
49520 24 31.0072860956 51.9425429446 38.9360079918
49521 20 8.6115534913 12.1514771778 74.4400095359
49522 20 6.1514169063 13.0002020371 75.6022426985
49523 21 9.5056639064 11.7300331927 75.6831547054
49524 21 5.3267598612 13.4363785552 74.3718189544
49525 22 9.5336136262 12.8039553429 73.6101236109
49526 22 8.0164152801 10.954624901 73.9789514065
49527 22 5.7126025632 11.6853491862 75.9118597422
49528 22 5.7712801377 13.9968695902 76.5961975947
49529 23 7.6171776656 13.1935489946 75.1065748089
49530 24 4.4898303823 13.1234876152 81.9753961846
49531 20 4.9318437897 8.3966081726 72.3075806098
49532 20 5.0608727172 7.6675676056 74.9872179062
49533 21 3.5590448462 9.0376744709 72.4390976984
49534 21 3.6875752061 7.2886375016 75.5661363
49535 22 5.0368423189 7.8736827584 70.9867973296
49536 22 5.8782336506 9.5073195625 72.5087849182
49537 22 5.9817355415 6.7612315265 75.6534090196
49538 22 5.2362600154 9.071470434 75.2688665221
49539 23 4.9587178008 7.3141364763 73.4569052672
49540 24 12.4177010654 10.7966827928 71.6091182335
49541 20 82.5339228819 87.5231536606 21.7246677975
49542 20 81.0805935743 88.3927005 19.5301283829
49543 21 81.4320229499 87.3995874628 22.9087892949
49544 21 82.1731395171 88.6921216954 18.5053988621
49545 22 83.1642882165 88.782855391 21.8766701226
49546 22 83.3973896283 86.4225632871 21.9763836479
49547 22 79.910315981 87.9935657793 18.7594532097
49548 22 80.8906140529 89.6691458711 20.164422393
49549 23 81.7416399936 87.314279081 20.3982721239
49550 24 85.1615519982 86.3742967026 22.5086256354
49551 20 6.3957898751 39.5689924434 56.6656527296
49552 20 3.6573141155 39.4783522877 57.1210984655
49553 21 6.4153771285 40.832809929 55.7824490659
49554 21 96.2014107142 39.6286708947 56.0032032119
49555 22 7.3088795343 38.559509925 56.1340655213
49556 22 6.700870234 40.0114361342 57.9817590151
49557 22 96.7496480233 38.4712082666 58.0282483416
49558 22 3.7561970065 40.7917459163 57.7226535132
49559 23 4.9592416242 39.0241225704 56.4381637113
49560 24 93.1777336937 38.9179547925 56.5832440844
49561 20 21.1392016112 6.1475069388 52.8448287463
49562 20 21.8811600374 3.9184325959 54.3720545689
49563 21 22.2878714894 7.2366947994 52.8558664536
49564 21 23.2286957268 4.3087745667 54.9414318937
49565 22 20.2725545085 6.5583435 53.8764802192
49566 22 20.542417098 6.229008247 51.4996315543
49567 22 21.040329945 4.3136479951 55.4307390706
49568 22 21.9573950497 96.1090868404 53.9876056113
49569 23 21.8177399904 4.7714789982 53.0887807856
49570 24 26.6775115581 93.9782480925 50.2946506609
49571 20 64.0430505001 90.2496544431 89.5464215324
49572 20 64.6693000794 90.2700461397 92.2640360251
49573 21 62.5444478846 90.2025103374 89.4967518495
49574 21 63.5504694269 89.776155508 93.1021534606
49575 22 64.4597707206 89.5544659631 88.3421889581
49576 22 64.3649212697 91.6652871741 89.514617969
49577 22 65.8102996864 89.9209552614 93.0550093549
49578 22 64.5370346716 91.6741734639 92.2002418185
49579 23 64.4825009144 89.5679357076 90.8929282829
49580 24 63.2793908189 6.7492210044 87.2665737359
49581 20 91.7553660904 47.0681791537 30.2549447414
49582 20 93.843082948 45.2844669463 30.6057193377
49583 21 92.2515952194 48.4683778025 29.8623578132
49584 21 95.1320626647 46.2112601998 30.5673679819
49585 22 91.5275029127 47.0852034142 31.6615041028
49586 22 90.6114667468 46.8544404997 29.4060702182
49587 22 93.5016623409 45.1739963335 32.0158332151
49588 22 94.2290285439 44.0573170985 29.9520625699
49589 23 92.9042230484 46.0917162174 29.7405688733
49590 24 89.407701872 45.6699448427 29.9199783869
49591 20 84.1485149639 67.8880077755 73.2513981237
49592 20 81.5350103714 67.358384905 72.5990509144
49593 21 85.1646388146 66.9417582244 72.5934385208
49594 21 81.811701373 67.3308841767 71.0550814511
49595 22 84.666351808 68.1174611315 74.5419680186
49596 22 84.0952907652 69.0196533933 72.3869959784
49597 22 80.5324498051 66.3288848497 72.7407638513
49598 22 81.1224059062 68.7014306795 72.8923920168
49599 23 82.8499006383 67.0253828882 73.2813308892
49600 24 84.7206984855 75.9027863726 69.6405711988
49601 20 3.3004080728 91.5172135245 35.8765987323
49602 20 4.8909762107 90.6522501398 38.0219361636
49603 21 4.0127469985 92.7479178883 35.2768209425
49604 21 6.2758343171 91.2675555518 37.8450522272
49605 22 95.5085607315 91.7660296382 35.7183292345
49606 22 3.8625593473 90.387906404 35.1518516463
49607 22 4.7080121813 90.6741384747 39.4353239372
49608 22 4.9895953192 89.3279123438 37.4600420302
49609 23 3.829695977 91.6259068794 37.3616380634
49610 24 68.6142514998 34.2365637996 12.0933327807
49611 20 62.5631558631 29.6952955654 6.4040400936
49612 20 65.0666575422 30.7354591684 7.1624054169
49613 21 62.5208758317 28.4394289706 5.5295637019
49614 21 66.3292590093 29.8595516164 6.6595817255
49615 22 62.2702824601 30.6782127543 5.4620653155
49616 22 61.4948367524 29.561814139 7.3059049658
49617 22 64.8129773541 31.713512283 6.150790189
49618 22 65.4322114415 31.2201828907 8.4177294803
49619 23 63.9478268897 29.6455323427 7.092783675
49620 24 19.8119640785 26.4454390851 53.3739839174
49621 20 52.5212742587 34.9982591431 72.8552566795
49622 20 50.6510376508 33.0626381505 71.9838390423
49623 21 53.4926860408 34.1760434892 73.7648385928
49624 21 51.1430574846 31.6427025844 71.604347699
49625 22 51.4630574564 35.4781187909 73.7110531547
49626 22 53.3594852341 35.9291681518 72.1133917932
49627 22 50.1953112952 33.0337343237 73.3359581864
49628 22 49.579351104 33.2269877413 71.0707026131
49629 23 51.8311369328 34.0385398475 71.7500828513
49630 24 53.937468229 42.8673961277 68.7196709585
49631 20 56.5910078954 77.6017514376 70.7771744309
49632 20 54.7164684526 75.6883929393 70.041857337
49633 21 58.0896105109 77.3148645877 70.60412563
49634 21 53.579397521 75.277659272 71.0401150683
49635 22 56.5360999786 78.532941066 71.8909539292
49636 22 56.2853195272 78.2935724815 69.5666746838
49637 22 54.0672080597 76.5611201351 69.1270371897
49638 22 55.0801515541 74.4180276612 69.5216819956
49639 23 55.8123818314 76.2784425803 70.9757596223
49640 24 53.6247643688 76.9034761411 67.2990806132
49641 20 54.1414787342 40.6019534747 8.5485637278
49642 20 56.5449862684 41.8685771571 9.3359731877
49643 21 53.9540247899 39.186040124 9.2266624695
49644 21 57.9103880772 42.0149670887 8.5455985132
49645 22 53.5795846008 40.4131899719 7.2504825795
49646 22 53.4241212997 41.4596207477 9.4613540594
49647 22 55.9487629945 43.2024560222 9.3586940275
49648 22 56.9751762334 41.3469987173 10.5691002347
49649 23 55.7165034418 40.8086766368 8.5752600131
49650 24 54.9523760611 44.6223915882 9.769315447
49651 20 80.9219499169 55.2953868464 51.3389300192
49652 20 80.3082346831 56.3817591562 48.8208361169
49653 21 81.938541467 54.1953577122 50.7990177605
49654 21 80.5178575819 55.282665421 47.7773050777
49655 22 80.1903744187 54.6023497839 52.3129609184
49656 22 81.6958989863 56.3396662047 51.9081202642
49657 22 79.1580681666 57.0168950254 48.2688572121
49658 22 81.4773897977 57.1818058556 48.7732243117
49659 23 79.9839318763 55.5580468641 50.1203858414
49660 24 78.4288311658 55.0856704077 51.3716689815
49661 20 38.434353549 19.267561905 4.7166272053
49662 20 37.4588260116 16.7657439439 3.9920933903
49663 21 37.1574404784 20.0072753738 4.0615018612
49664 21 38.9357273721 16.2023531723 3.8189734991
49665 22 39.4350433175 19.3555829437 3.7716628923
49666 22 38.7043096784 19.8963370614 5.9416911136
49667 22 36.7529739839 15.7508361118 4.644751152
49668 22 36.9561426301 17.3163197504 96.3195515983
49669 23 37.7834094381 17.8999151388 5.0180501545
49670 24 51.1544693515 44.0805149918 61.6631150188
49671 20 55.2363631743 82.8250190269 73.429310999