ITEM: TIMESTEP
10750000
ITEM: NUMBER OF ATOMS
4000
ITEM: BOX BOUNDS pp pp pp
3.23005382 96.76994618
3.23005382 96.76994618
3.23005382 96.76994618
ITEM: ATOMS id type x y z
49081 20 27.0732788427 34.2638774482 16.6094387838
49082 20 27.2256553273 32.5887650558 18.7141799018
49083 21 28.1718113385 33.4183703611 16.0346361453
49084 21 26.3896893093 32.5714601757 19.9833291613
49085 22 27.3308877062 35.6207671267 16.1647501355
49086 22 25.8117998543 33.7188204954 16.1820550156
49087 22 26.7329807143 31.5458887959 17.8646505994
49088 22 28.5384877166 32.3086130782 19.2105025707
49089 23 27.1524135916 34.0987795381 18.152659928
49090 24 26.5520745624 26.0143137213 22.1468133317
49091 20 46.814218346 60.9681136185 46.2552239492
49092 20 46.9419938389 58.2666815272 46.2878693717
49093 21 45.6573169573 61.3149595394 45.21178645
49094 21 48.4962526904 58.371165587 46.3174279777
49095 22 47.8923591453 60.8915044467 45.366407892
49096 22 46.9097225761 61.9963976553 47.2636775288
49097 22 46.6044083674 57.167587792 47.0895997891
49098 22 46.686442853 58.0868978541 44.8978665712
49099 23 46.4987082891 59.588587286 46.9025200044
49100 24 47.1855717187 55.9559655662 48.4868987012
49101 20 14.3390385165 38.2294076449 71.896379243
49102 20 14.5867321514 38.290956894 74.6497259746
49103 21 15.7427916811 37.9723600207 71.4923804479
49104 21 16.0206987013 38.9096297421 74.8977937691
49105 22 13.8086673268 39.0880103168 70.903079126
49106 22 13.6704153659 36.9425793457 71.9201383756
49107 22 13.8671297595 38.7206791595 75.8088723207
49108 22 14.7869075211 36.933599516 74.5038037425
49109 23 14.2296903823 38.9201062101 73.2832016871
49110 24 10.7654404687 45.1209592145 72.936542846
49111 20 80.8049315115 84.8616631033 82.2751915396
49112 20 78.7883049721 83.5883045486 83.7887605379
49113 21 80.0856097393 86.1501751206 82.0145893995
49114 21 77.3071007766 83.8750978586 83.3234931133
49115 22 81.6825227817 84.6113503513 81.1710466502
49116 22 81.3593424536 85.1109469164 83.5709996685
49117 22 78.7488311376 82.2499357687 84.1292457461
49118 22 79.0818331544 84.5405406528 84.8180735135
49119 23 79.6378342746 83.8247733965 82.4657323004
49120 24 82.463487343 85.1695028891 84.9493099824
49121 20 47.2319675053 65.7368708709 48.0540896192
49122 20 49.4017188484 64.4243191013 47.0574220661
49123 21 48.0671852041 66.6425241088 48.9959427954
49124 21 50.7538379925 65.2759998213 47.0820230578
49125 22 46.9200119642 64.5947487852 48.8907104165
49126 22 46.1293192541 66.5339242937 47.6187549602
49127 22 49.4809471373 63.8268798088 48.3014090946
49128 22 49.4166852312 63.4878912389 45.9971473862
49129 23 48.2960773208 65.4756139516 46.9534057058
49130 24 48.1076879775 57.8379882005 43.6069225167
49131 20 88.9817212022 33.6802820597 36.3546811222
49132 20 91.2683038709 33.2548626293 34.76628021
49133 21 89.0811541078 35.2467946371 36.3406501383
49134 21 91.5693152445 31.7666429418 34.6157745232
49135 22 88.4646326772 33.3584112901 37.6952948595
49136 22 88.0349104117 33.428940369 35.2952483013
49137 22 90.4542261877 33.5855261488 33.5616734762
49138 22 92.5033110697 33.8905597377 34.8268940603
49139 23 90.4590902621 33.2202528691 36.1214861705
49140 24 84.8892573715 33.716575538 31.3664792823
49141 20 47.1867877373 37.4183232382 10.7851399701
49142 20 47.6296055877 40.013400472 9.7774160017
49143 21 46.710763225 36.5644911007 9.508629121
49144 21 47.1205614935 39.8053677513 8.2862778696
49145 22 45.9612280676 37.7126932795 11.4642115266
49146 22 47.898719858 36.423526483 11.5079975502
49147 22 46.4671853453 40.4300271525 10.4537936094
49148 22 48.6811810576 41.0020235943 9.712817352
49149 23 48.1013272649 38.5537104517 10.1610792242
49150 24 45.6161594046 41.1758207143 11.8755438493
49151 20 71.4367242119 8.3397359181 34.5400072104
49152 20 72.2636168604 8.9729355114 37.2478935543
49153 21 70.7545377769 6.9139260468 34.5206444527
49154 21 73.1701119572 10.2106273052 36.8280865174
49155 22 72.7895916751 8.2221001495 34.0561253472
49156 22 70.5861659707 8.9610372371 33.6274320205
49157 22 71.7160343305 9.2492710614 38.502169971
49158 22 73.2912461178 7.9597488134 37.2263793791
49159 23 71.2607756744 8.9252582283 36.0084899806
49160 24 74.7184777955 6.8348474218 37.7351428536
49161 20 26.2003645672 46.1408246609 33.6231291855
49162 20 23.5713323525 47.0854840338 33.0981833096
49163 21 25.7123669487 44.7130317439 34.326549176
49164 21 22.7392014701 45.9044493529 32.8017553907
49165 22 26.2843633905 47.0348789521 34.7399019604
49166 22 27.4409841595 45.8067001654 32.9386977931
49167 22 23.5018322125 47.2811694886 34.4777096421
49168 22 23.0883858882 48.2086175214 32.3272275167
49169 23 25.0118466948 46.5961768569 32.5921324919
49170 24 85.8617916324 36.9357509335 23.7371785816
49171 20 14.0259604967 90.5375702318 46.7317161609
49172 20 14.2045281512 90.2950212909 43.9914650142
49173 21 14.0409268795 89.0262461909 47.1408596501
49174 21 14.8644520918 88.9889237739 43.5731546156
49175 22 12.6489597413 90.898072977 46.7327450997
49176 22 14.7099241897 91.2654976741 47.7512074478
49177 22 12.7968463111 89.978669375 43.9173814195
49178 22 14.6372436933 91.2927177828 43.0355808542
49179 23 14.7988806273 90.5940683268 45.4473198989
49180 24 11.0294942309 89.5612008354 43.6796030131
49181 20 12.9234993254 28.4244625878 65.2926499221
49182 20 11.3455748811 30.7165641102 65.6970228768
49183 21 12.3372941739 27.2305194017 66.1014893714
49184 21 10.640059597 30.3262221394 66.9825416175
49185 22 14.0064106592 28.9404286341 66.1015829113
49186 22 13.2722160441 27.7935360138 64.0738251247
49187 22 12.4251655488 31.5450469368 66.1302996582
49188 22 10.2882373539 31.4022115212 64.9986540404
49189 23 11.6100121568 29.3253452911 65.0131527238
49190 24 11.9894754382 32.2294783292 72.3272239872
49191 20 85.1119758552 88.3339574476 6.3667925084
49192 20 83.5667903734 89.9034633015 8.0450852572
49193 21 84.9858840803 86.925807908 6.9925089104
49194 21 83.2785004251 89.0067898933 9.3103526112
49195 22 86.4163896542 88.4496662944 5.916192139
49196 22 84.2055742983 88.3470530325 5.3050118363
49197 22 83.674828949 91.2233111827 8.6155476447
49198 22 82.4231716494 89.7537994737 7.2429526182
49199 23 84.9437911288 89.3921742499 7.4971285677
49200 24 78.6454695565 93.3319809762 94.0827321522
49201 20 45.7032450444 85.9708591469 79.2400091124
49202 20 45.0830755581 86.0600026643 82.0603304069
49203 21 45.240409657 84.7918823436 78.4630667664
49204 21 46.1683253892 87.00232354 82.6977112334
49205 22 46.9290853338 86.3503504902 78.6697899285
49206 22 44.6867470341 86.9389970328 78.9828679483
49207 22 44.0737801195 87.0160739041 81.7997282668
49208 22 44.6728095902 85.1349866688 83.1252820814
49209 23 45.7554403044 85.4807101109 80.783697956
49210 24 44.6617718829 84.2499122073 84.9343435997
49211 20 39.3822868182 89.147848051 82.0544373937
49212 20 41.9900854773 89.7503384977 81.1925608255
49213 21 39.5183873616 90.2921215543 83.1184536693
49214 21 42.2924064094 91.2867312297 81.357191036
49215 22 39.6919974018 87.9554950431 82.697243534
49216 22 38.0141723525 89.2124841166 81.6017978545
49217 22 42.4242976576 89.0815282673 82.3051243052
49218 22 42.6430874659 89.3480234207 79.9674688552
49219 23 40.3901791584 89.6829897752 81.0192314049
49220 24 39.7718804699 86.3245334799 83.3952382108
49221 20 73.9928888504 86.310596036 65.8218986331
49222 20 75.9361801142 86.5725077346 63.809387849
49223 21 74.422517576 85.7614233279 67.2206941835
49224 21 75.2339761423 86.2682224647 62.4865466912
49225 22 72.8182148822 85.5627445965 65.4612088082
49226 22 73.8900885087 87.7706602158 65.9831614075
49227 22 75.8519942111 87.965129652 63.9331411266
49228 22 77.2743618143 85.9952730588 63.6956433399
49229 23 75.1891705338 85.8515957841 64.9117554804
49230 24 75.2913160963 88.9987454626 65.5526908229
49231 20 88.1689530775 89.147006192 85.6293449999
49232 20 89.5316422294 91.3562313697 84.5493334027
49233 21 87.1847263301 89.3084560462 84.429134641
49234 21 88.6692979617 90.9456847822 83.2309821598
49235 22 87.3733962929 88.6792131903 86.7237617405
49236 22 89.0978977485 88.1820486624 85.1327417114
49237 22 89.3120105621 92.7782248134 84.6199560214
49238 22 90.8953603201 91.0517590201 84.2457029121
49239 23 88.8938872433 90.5568394496 85.7810667053
49240 24 80.6779978776 74.24525948 35.1577446595
49241 20 10.8873790724 87.070046422 48.3807309233
49242 20 8.4527227541 86.2115372899 49.4458696776
49243 21 11.0812592073 85.7219494933 47.5763813889
49244 21 8.2535201993 84.9410784719 48.5512541471
49245 22 11.6536672246 86.7420020195 49.5123765411
49246 22 11.4392270214 88.1139516208 47.6044433566
49247 22 9.0685519894 85.6138173778 50.5779829949
49248 22 7.1139423987 86.6732501986 49.650628502
49249 23 9.353044218 87.1636798543 48.6259925211
49250 24 7.5505211383 88.2633348289 48.521789081
49251 20 56.4985904818 85.7942558301 73.4933858252
49252 20 54.8701544957 84.4469072206 75.4477147963
49253 21 55.4753575993 86.7501399901 72.8778933335
49254 21 55.4932237187 84.1429025704 76.8017047382
49255 22 56.5810926669 84.5643933254 72.6284224406
49256 22 57.677660825 86.6055273166 73.5993665233
49257 22 53.5593799841 84.9211544748 75.7873581455
49258 22 54.8031799328 83.1912277055 74.7209098327
49259 23 55.8289383924 85.5967931174 74.8977937691
49260 24 53.4235600604 82.5332681027 73.6660604665
49261 20 38.2899279552 63.4736731753 52.1036186393
49262 20 36.3449529734 61.6687274123 50.8726336558
49263 21 39.5781593528 62.8761403429 51.5689446145
49264 21 37.1346167447 60.9714810547 49.7219994399
49265 22 38.158036707 62.885587872 53.4166381083
49266 22 38.5874783528 64.891270244 52.1635777103
49267 22 36.5585045476 60.7684059484 51.9721950905
49268 22 35.0233278342 61.6390752664 50.3294475009
49269 23 37.0374287965 63.0556433963 51.1427768649
49270 24 36.3031406415 56.2805489927 58.2736034792
49271 20 6.3234087064 41.8055312697 76.9067500373
49272 20 5.3088937418 39.7043446676 75.4418217831
49273 21 7.044133577 40.9498283344 78.0446628279
49274 21 5.367842582 38.5164815745 76.5640198717
49275 22 5.6419986525 42.8564519603 77.59960002
49276 22 7.3116202532 42.1820293364 75.9692932361
49277 22 4.1663787885 39.4330789798 74.5849963691
49278 22 6.5265399366 39.6128626529 74.7923743104
49279 23 5.1186990787 40.9491735551 76.3441075848
49280 24 8.7176464372 42.9820760358 74.8969519101
49281 20 89.674477645 50.1998012101 26.9729105382
49282 20 91.7615397233 49.1202573123 28.4324134787
49283 21 88.3132851314 50.3852908166 27.6544421939
49284 21 90.9960092443 47.9649461018 29.1857837717
49285 22 89.663159318 48.9473955913 26.3087773024
49286 22 89.8618380494 51.3316339076 26.1633227698
49287 22 92.1918232282 48.4231044946 27.2933782094
49288 22 92.7262166332 49.5726162318 29.3525653998
49289 23 90.6428961506 50.1387196604 28.2159621677
49290 24 93.9418610744 48.0741071562 26.402971974
49291 20 25.3817969691 23.0605110003 43.8418947264
49292 20 25.0919168427 23.0901631462 40.965823656
49293 21 23.9197684515 23.2387044953 44.2374749311
49294 21 26.4340272183 23.2985700264 40.1762534246
49295 22 26.1696834825 23.8890873668 44.7211697145
49296 22 25.6041412933 21.6316891445 43.9058760127
49297 22 25.0101629768 21.6349630407 40.9967853603
49298 22 24.1120864702 23.8065851818 40.1875717515
49299 23 25.4488650719 23.6597275508 42.3562941559
49300 24 26.3368392701 25.6745768322 43.9025085766
49301 20 56.3320894734 26.30213597 55.2745274504
49302 20 53.5180353516 25.9084265631 54.9648168668
49303 21 56.6095287941 24.8879063375 55.8168717463
49304 21 53.2036477734 27.1310864961 54.0701077963
49305 22 57.1227821835 27.1603644824 56.05698865
49306 22 56.5350710398 26.2534016861 53.861887996
49307 22 53.7420633938 24.8619957873 54.0480323818
49308 22 52.2943464798 25.7441705121 55.7135101652
49309 23 54.8321772994 26.3985755991 55.7317504442
49310 24 57.1086576598 25.4539162261 52.2530953873
49311 20 61.5996014319 17.1048260538 85.0631480314
49312 20 61.0126386073 19.8415226845 85.7853695403
49313 21 62.5769062272 16.3897135767 86.1521394583
49314 21 59.8748193566 20.3259657871 84.7805640166
49315 22 62.5080608665 17.5532562977 84.0497368376
49316 22 60.6568128568 16.1687723509 84.6791667733
49317 22 60.5776781078 20.420721698 87.0492805659
49318 22 62.1961988653 20.3847088395 85.1935426414
49319 23 60.9417353689 18.2540571713 85.902107326
49320 24 63.2621794787 17.7358461676 82.3288834379
49321 20 84.8643757602 84.4177227742 78.3237858667
49322 20 86.5693273782 86.5672695006 78.5297607097
49323 21 83.8967055737 84.3917186841 77.0392960648
49324 21 86.8561206882 86.6730631188 80.0433297079
49325 22 84.0407570079 83.9119525762 79.4081002989
49326 22 85.938587884 83.5861531311 77.8839612928
49327 22 87.6484035765 85.8177343431 78.0156654613
49328 22 86.6432238932 87.9380966231 78.0967645479
49329 23 85.176518381 85.9076261797 78.4763494311
49330 24 86.5719464952 75.465393836 40.8682615482
49331 20 12.3600243678 34.936616354 8.3211121255
49332 20 12.9254636631 34.4591887434 5.5342032805
49333 21 13.1597810935 36.3055726787 8.293742353
49334 21 13.0008568163 32.8542312703 5.4704371359
49335 22 13.173250838 33.922456841 8.8808454874
49336 22 11.1838631152 35.3378089523 9.0272541269
49337 22 12.3112994379 34.8014512095 4.2805255192
49338 22 14.2797342247 34.9678586781 5.5758378866
49339 23 12.0441962752 34.7752600397 6.7637196877
49340 24 60.863442479 48.8277580689 68.6967536849
49341 20 85.4690176244 30.6677362864 30.7473387348
49342 20 87.0347818826 30.4017088325 33.1671222102
49343 21 86.4132092979 30.6667073476 29.5214049055
49344 21 88.4402187653 30.4309868188 32.7689228885
49345 22 85.1787633384 32.0658770575 31.0331031059
49346 22 84.3317596131 29.9541204476 30.3982478565
49347 22 86.8040189681 31.781235165 33.4354881614
49348 22 87.0677079247 29.5216855252 34.2651870066
49349 23 86.2246328749 29.90856652 31.9077946394
49350 24 83.1584887432 35.7577095291 29.7236381528
49351 20 67.844137566 76.3071593273 12.3266586882
49352 20 69.6600274964 74.1424591383 12.8984306342
49353 21 66.2470374439 76.1588985979 12.2921705299
49354 21 70.8627634324 73.9335845587 11.8133959448
49355 22 68.0932342994 77.1029031916 11.1533036324
49356 22 68.1004368711 76.9995416105 13.55386466
49357 22 70.3165840009 74.9005999659 13.9500061041
49358 22 69.4407699887 72.8068030153 13.3277787401
49359 23 68.4215593216 74.8155722037 12.2279460398
49360 24 64.9545032112 72.9736781833 20.8273396101
49361 20 32.7653683725 90.2270177892 5.5300781713
49362 20 33.3413870297 89.1301690114 96.5249652019
49363 21 33.1079114584 89.2326887334 6.5796986574
49364 21 33.8084317123 87.6738464272 96.4911973007
49365 22 31.6075315849 90.8597216211 6.0775952232
49366 22 33.9569730613 91.0687832805 5.3222418844
49367 22 32.5913841728 89.204346146 95.3389729066
49368 22 34.5301855217 89.936950583 96.4093498949
49369 23 32.4450877811 89.3840362792 4.2839303713
49370 24 35.2380018872 91.4941091711 3.8094941664
49371 20 10.6862028259 37.8916350936 69.7943507818
49372 20 10.0371669288 39.2369258255 72.0922517776
49373 21 9.4640947782 37.8736754342 68.7943157926
49374 21 9.5223140072 40.4117868735 71.2095158134
49375 22 11.4981665076 36.7224799789 69.5793025693
49376 22 11.4173293326 39.1172883031 69.4548009726
49377 22 9.000230452 39.0723891548 73.0220383076
49378 22 11.2854006684 39.6904072236 72.6010152521
49379 23 10.1167974392 37.9386856594 71.2705038232
49380 24 8.0198481942 38.6602523891 74.7957417465
49381 20 43.5201174966 64.4379759256 78.2163085304
49382 20 44.7075128903 66.969913732 78.9070070956
49383 21 42.0394745405 64.7535795225 78.3221956885
49384 21 43.9791177484 68.2044532314 78.5095560929
49385 22 43.8335696759 63.686008731 79.4107194159
49386 22 43.3896293468 63.6478444549 77.0582846629
49387 22 44.2522542341 66.5547836897 80.1510876639
49388 22 46.0930257759 67.3052542461 78.8481705033
49389 23 44.1992171152 65.8726907947 77.8404652429
49390 24 41.5367911589 58.7268042577 81.2301638622
49391 20 29.954588147 24.7384295895 46.043356093
49392 20 29.3694961203 24.6925950422 43.2915995396
49393 21 30.5082507699 26.170057642 46.102473305
49394 21 28.7515715914 23.3647962702 42.9101438586
49395 22 30.7776456599 23.9634515813 46.9259049775
49396 22 28.5540153387 24.8351498382 46.3887053756
49397 22 28.3457955383 25.6047025326 43.6200181017
49398 22 30.2114486914 25.1082863239 42.2099042244
49399 23 30.2280052524 24.3207739701 44.5497110918
49400 24 28.771027889 27.46661409 42.8702023245
49401 20 94.5306011569 47.7234260997 23.3697538845
49402 20 92.0053982227 48.9547852428 23.5535597729
49403 21 94.0712267455 46.7284422647 22.234366671
49404 21 91.3312562185 48.4111313884 22.2374534874
49405 22 94.3885140604 47.0610701219 24.6692100691
49406 22 95.9003058007 48.0941246931 23.0094382191
49407 22 91.6480758339 48.042116513 24.5403120974
49408 22 91.5554713405 50.2969891582 23.6996690848
49409 23 93.5490870663 48.9309325702 23.2401075936
49410 24 94.6476195622 49.4227653242 30.4626968423
49411 20 24.6618204176 26.3512444135 20.3714261747
49412 20 25.497505816 29.0067484177 20.264322998
49413 21 23.2326244023 26.7371900094 20.5532677255
49414 21 24.1934661766 29.6446904836 20.7484854808
49415 22 24.9122267095 25.3119226695 21.3241299784
49416 22 24.8254216894 26.1009316616 18.9750626616
49417 22 26.561989791 29.768630841 20.8860826625
49418 22 25.533144515 29.0466899518 18.833910964
49419 23 25.4396046226 27.5776459423 20.9267725157
49420 24 25.1172661535 26.2015805858 17.0241946665
49421 20 27.1865556523 27.0670116699 40.1627836801
49422 20 24.7359040124 27.0091104765 41.4865602367
49423 21 27.5771782428 25.6697127578 39.4011818765
49424 21 24.4622062873 28.3561784664 42.0521959658
49425 22 27.8089700961 27.1439950013 41.4500796787
49426 22 27.8139277104 28.0475903615 39.2997846331
49427 22 23.4832177739 26.4439424469 41.1786269111
49428 22 25.3730977591 26.4715367151 42.6124999211
49429 23 25.6448311464 27.2675611991 40.2093665464
49430 24 22.2587805829 25.2972369064 40.4251630781
49431 20 7.0068579299 11.2795076552 46.8016840004
49432 20 8.2608256649 13.0132040821 48.6562994462
49433 21 5.6242541349 11.7681881148 46.2196787901
49434 21 7.8707736677 14.3651361464 47.9407192697
49435 22 6.9027480297 9.8264402593 46.8716518399
49436 22 7.9787935354 11.7643810412 45.8293368193
49437 22 8.0479008079 13.2752093206 50.089517677
49438 22 9.5787372703 12.7306200673 48.3952296067
49439 23 7.1641078429 11.9688685999 48.1987022928
49440 24 11.046789757 14.9274044394 55.6613149053
49441 20 54.6251735176 30.6607207944 64.6213141147
49442 20 55.9906688663 32.4714660308 62.7422847569
49443 21 55.6584151686 29.4996101106 64.9648861393
49444 21 57.4594322561 31.9721500853 62.8036469263
49445 22 53.3896986193 29.9240941421 64.4295573353
49446 22 54.6067461588 31.4819075095 65.7574496473
49447 22 55.7468103669 32.8856606741 61.4410513143
49448 22 55.8226712196 33.551384088 63.66945217
49449 23 55.177526582 31.1554532851 63.2324337929
49450 24 54.7211454472 32.8011941513 66.9875927717
49451 20 29.7873388195 51.2077870901 62.3252839168
49452 20 32.3732491438 52.2410287411 62.2193032187
49453 21 29.3911038354 50.0505115419 61.3328256589
49454 21 32.3898057047 53.7138143463 62.5914984504
49455 22 28.6177160054 52.034305579 62.2796364493
49456 22 30.0217497897 50.4890265572 63.5492534083
49457 22 32.5650059231 51.6220752734 63.4877041591
49458 22 33.4120096484 51.976123766 61.2741761463
49459 23 30.9780081093 51.8615373978 61.5732231822
49460 24 36.7973118928 47.2637710687 67.5183381209
49461 20 49.8303186352 63.3661022991 26.9585989346
49462 20 50.1295527509 60.5858160785 27.8338517074
49463 21 49.7464133518 63.5383092409 25.3669241262
49464 21 49.6598889514 60.5211800128 29.3084145706
49465 22 51.2318268425 63.5364384431 27.2608263268
49466 22 48.9800410137 64.3304050494 27.5498645942
49467 22 49.8604384806 59.2746674073 27.2324837395
49468 22 51.5145043972 60.8454828197 28.0601247071
49469 23 49.3236130383 61.8498206439 27.2122791227
49470 24 53.4885702855 60.852966011 27.9861346522
49471 20 43.8389949897 65.7355613125 84.3642179557
49472 20 44.5580361423 63.1020391829 83.5480823949
49473 21 44.4911551192 65.9853128251 85.7168047992
49474 21 45.9867644582 62.4793441195 83.8761267974
49475 22 42.4824794707 65.2930240817 84.5616806685
49476 22 43.9910908547 66.9941405642 83.7656561845
49477 22 43.7198251668 62.6020684583 84.5872170591
49478 22 44.176767541 62.4984262576 82.301850409
49479 23 44.692920667 64.7112059512 83.61318616
49480 24 42.1062620236 61.6381398675 85.0160039257
49481 20 78.4600734899 89.3583128088 65.7206884696
49482 20 80.9233530153 89.5820602313 66.9658915167
49483 21 78.5879425227 90.6865792803 64.8941699807
49484 21 81.2505555587 91.0319285629 67.5428455727
49485 22 77.0986938964 89.2791780599 66.0890485657
49486 22 78.8917600931 88.3304964716 64.8010042479
49487 22 81.6382784126 88.66209539 67.7947485029
49488 22 81.3912395568 89.6980496979 65.6741056032
49489 23 79.3921985172 89.5787863351 66.9859090536
49490 24 53.3881084412 42.8207197215 59.5413496404
49491 20 55.6757200487 63.9121881907 28.8998323208
49492 20 54.5392103565 62.2555031571 30.8881162728
49493 21 56.5702420393 63.0155147825 27.975003405
49494 21 53.3249690138 63.0904402363 31.4606739539
49495 22 56.3947612013 65.1478501688 28.9249010119
49496 22 54.4550244534 63.9676573468 28.2360732446
49497 22 53.8745158814 61.6097972801 29.7794814685
49498 22 55.000268486 61.3966198654 31.9260349184
49499 23 55.5973336189 63.291457465 30.3479233944
49500 24 60.839963966 64.5302997994 22.0300755461
49501 20 47.8885240097 8.8521006785 18.9585061006
49502 20 50.4722829165 8.9808022164 19.982767922
49503 21 47.7351185863 9.5790927219 17.6453930917
49504 21 51.4783979987 9.7400842306 19.1230427713
49505 22 47.4697459116 9.757136553 19.9227153111
49506 22 46.982777232 7.7812559907 18.9602833586
49507 22 50.0022449574 10.0045963383 20.8636330883
49508 22 51.2516572996 7.9061317471 20.5305375316
49509 23 49.3793628142 8.4252594417 18.9727241643
49510 24 51.2168604597 7.2610806493 22.2408209236
49511 20 30.0638427413 46.016416604 26.9681400036
49512 20 30.2481163292 46.4213507981 29.8013698033
49513 21 29.2525712549 44.7396906132 26.5175583421
49514 21 31.6105248615 46.2150017955 30.5413638918
49515 22 31.1865085294 46.1599067989 26.0500459601
49516 22 29.0950500761 47.0403042658 26.8890987946
49517 22 30.0300748402 47.8265070611 29.7212061156
49518 22 29.3803467478 45.8162412344 30.7319046525
49519 23 30.4680286162 45.5931485911 28.4508408374
49520 24 32.1187270967 53.2680967593 28.4352196754
49521 20 9.6800877437 26.9828257667 59.1500722706
49522 20 10.993752638 26.3770614238 61.6127905567
49523 21 10.2445261622 26.6731151831 57.7043196943
49524 21 10.3573072104 27.5632407988 62.4625069389
49525 22 8.9980416185 28.2241001384 58.961215228
49526 22 8.8390892795 25.8452871358 59.3380874543
49527 22 10.1590868245 25.2182892373 61.8951874917
49528 22 12.3460214459 26.217014668 62.0674879734
49529 23 10.8761917013 27.0640183933 60.1668509006
49530 24 17.1464513059 27.1166813527 61.4108379291
49531 20 7.3380826887 21.9129636008 61.1526678262
49532 20 9.6045262186 21.565182281 62.8701537898
49533 21 5.9424487867 21.9947174668 61.9647811716
49534 21 9.2298708878 21.5660241401 64.3874643838
49535 22 7.5317850978 20.5141680505 60.8968362206
49536 22 7.3463796772 22.8422824314 60.0297214184
49537 22 9.7486150688 20.1918295814 62.5697971954
49538 22 10.8520303471 22.2294090567 62.801308429
49539 23 8.3787701152 22.363825882 62.2552225374
49540 24 7.5799487884 29.0784935152 59.730206683
49541 20 96.5766927623 96.0162952672 75.8721988278
49542 20 93.9511215237 96.6001712753 75.0278142195
49543 21 3.8398104455 95.468993357 74.7434529467
49544 21 93.4844510007 3.5083845759 76.4537363386
49545 22 96.075599559 94.8481690914 76.4827337053
49546 22 3.9329078942 3.260868199 76.6618625991
49547 22 93.2203878846 3.8778521843 74.1394658617
49548 22 93.6514197086 95.1936119139 75.0485800756
49549 23 95.5329746434 3.3807016874 75.1969343449
49550 24 91.3484675587 4.6772749726 73.8833536365
49551 20 41.0299920221 64.3901770406 81.6938411086
49552 20 40.5950315226 61.6708788298 82.3163490923
49553 21 40.081123354 64.7423547354 80.477822508
49554 21 39.0171070784 61.8532816199 82.1633178284
49555 22 42.2541485934 65.095467829 81.5219147865
49556 22 40.3318102655 64.7554503203 82.9202426374
49557 22 40.9960370412 60.4102417005 81.7818621473
49558 22 40.8113892937 61.6226122454 83.7261823499
49559 23 41.3222106459 62.8512587315 81.5411840043
49560 24 42.2017662537 57.3391399545 76.5647681909
49561 20 38.170196893 54.271125025 57.1104349177
49562 20 40.9751776452 54.71871341 57.3901191959
49563 21 37.6924886627 52.9438874923 56.5884823184
49564 21 41.2057534799 55.7105168887 58.5486107628
49565 22 38.1282910212 55.0804321737 55.9256586411
49566 22 37.2249762807 54.7352699709 58.048733578
49567 22 42.0518218063 53.8090379568 57.44736561
49568 22 40.9628303794 55.5771290022 56.220309302
49569 23 39.629232134 54.0735687724 57.7020747369
49570 24 37.0635264265 59.5681020496 53.4649982327
49571 20 60.8666228353 23.7388622997 84.814986697
49572 20 59.0027469402 23.7510224857 82.7046331855
49573 21 60.7914167619 25.2544891756 84.558593852
49574 21 57.6287394613 23.9700929136 83.4988804115
49575 22 62.2884291992 23.3775176955 84.808064745
49576 22 60.2974325903 23.4878012286 86.1023762356
49577 22 59.3829866026 25.0307417531 82.2040076816
49578 22 58.6840565269 22.8103853281 81.7060948345
49579 23 60.0723756093 23.1024168721 83.6675328374
49580 24 65.7560465489 23.5898532512 94.9593880234
49581 20 90.0734252859 28.8355704147 43.0438123647
49582 20 90.2664916237 30.9474205645 41.2269870354
49583 21 89.9659479496 29.6563829702 44.43830508
49584 21 91.2766289213 30.4485723186 40.1613805817
49585 22 91.4622120678 28.5223053152 42.8682379868
49586 22 89.3030307324 27.6590256486 43.3958029797
49587 22 89.4202362176 31.7750615321 40.3982235891
49588 22 91.0284675869 31.6291393001 42.1938153629
49589 23 89.5296778916 29.6995048606 41.82264907
49590 24 88.3022474241 26.1151497252 43.5283490072
49591 20 6.4980663934 62.7360175841 65.8992561241
49592 20 5.7532830624 60.1475816828 65.2525213083
49593 21 6.0867808406 63.7119192811 64.7622787324
49594 21 5.3362822223 59.8522762426 63.7943279263
49595 22 7.6911490124 63.2681660318 66.4854706295
49596 22 5.4064839115 62.7864355861 66.8144504309
49597 22 6.5803066667 59.0596191947 65.626493798
49598 22 4.5919759448 60.3462604141 65.9846580458
49599 23 6.7053601488 61.3434892066 65.1802149715
49600 24 3.8665273096 61.4200048385 67.5154383843
49601 20 77.6137245438 93.2610777378 3.4818117633
49602 20 79.2237331711 93.0444393471 5.7168586283
49603 21 77.2186120385 91.7767867258 3.375481226
49604 21 79.6189392163 94.5002942317 6.3677559693
49605 22 77.6741513142 93.7724603293 95.6912441413
49606 22 76.5642069515 93.8409315305 4.2471598396
49607 22 78.0109884666 92.6393180732 6.4026744111
49608 22 80.3727772088 92.2568334534 6.0059436657
49609 23 78.9886674216 93.2824048332 4.1729920589
49610 24 96.3127231861 95.7216446063 22.3783245653
49611 20 9.411263447 94.5087128221 22.0481287453
49612 20 8.7188250399 96.4409663785 24.0168628598
49613 21 8.4331448546 93.4246790095 22.2395113651
49614 21 9.9119357209 3.7560660507 24.6865149492
49615 22 10.6958187268 93.9319458458 21.6965122899
49616 22 8.7926467229 95.4083795068 21.144626925
49617 22 8.2323053517 3.8655844275 23.0014873282
49618 22 7.8307760098 96.14425784 25.028216176
49619 23 9.4223385703 95.1546993187 23.4747056437
49620 24 23.0548986068 19.9822066826 46.351008799
49621 20 52.6401634618 33.6761663045 53.7241037345
49622 20 50.9308154689 33.9290046335 55.9335159921
49623 21 51.982203859 33.7980487842 52.307161445
49624 21 49.819187388 34.8579493045 55.3980936482
49625 22 53.6116687839 32.6599489139 53.5377722689
49626 22 53.1802628003 34.967016819 54.1005082614
49627 22 50.2898801264 32.997908545 56.7779941403
49628 22 51.7368487213 34.8402702649 56.5990523262
49629 23 51.474656403 33.2596331638 54.6715693042
49630 24 51.6448054672 30.2692563449 63.8032142161
49631 20 44.5951714795 95.2719048038 61.4866052419
49632 20 43.5700677992 3.5705100308 63.3558129109
49633 21 43.7043910846 94.8678124688 60.2588006148
49634 21 41.9744643153 3.455485896 63.1820157909
49635 22 44.2979017016 94.2295897833 62.4315452345
49636 22 45.9341014988 95.1825742066 60.9231209303
49637 22 43.7941893813 96.2268535649 64.4683763907
49638 22 43.7606085599 4.9834965182 63.6278269179
49639 23 44.2023974715 96.651711756 61.9529951452
49640 24 45.0135754181 92.506584966 62.7867162058
49641 20 81.3393249166 41.6936575584 17.0765770063
49642 20 81.2305380218 39.2140085518 18.5746183824
49643 21 82.6595469574 42.1721141078 16.4466793711
49644 21 82.5613300704 38.4682149901 18.986006829
49645 22 81.3238908343 42.4365513835 18.2871702932
49646 22 80.3676325148 41.9331196829 16.0508185466
49647 22 81.0230665405 39.9560605179 19.7947527383
49648 22 80.2010379665 38.2244500306 18.3377753749
49649 23 81.5105964595 40.1187263908 17.2794650328
49650 24 79.2636747051 37.8526289584 16.8187810629
49651 20 82.9416632727 10.4421478928 60.8483825563
49652 20 81.6490355002 10.165550431 58.298110931
49653 21 83.9556357059 11.5950551281 60.8177014716
49654 21 82.5495440439 11.0490627764 57.4601805753
49655 22 83.817383745 9.3106051689 60.5464357838
49656 22 82.3943613625 10.3581490694 62.1368945736
49657 22 82.243575056 8.8731939242 58.0533170327
49658 22 80.3740867673 10.3294042605 57.6509084158
49659 23 81.8604356569 10.8250253802 59.7675291001
49660 24 83.8702337842 8.2458873441 58.9302535236
49661 20 60.4551408488 50.4681671612 71.4247511057
49662 20 60.3714226452 53.3398418567 71.478349464
49663 21 61.26229658 49.7159193469 72.5333859099
49664 21 59.534708308 53.2786667671 72.7614361675
49665 22 60.7394085817 49.6721426773 70.2610213048
49666 22 59.0946031145 50.3921192288 71.8278145019
49667 22 61.3530302756 54.3909496271 71.7028452057
49668 22 59.3813964244 53.6275705656 70.4852364268
49669 23 61.0365848197 51.8942763602 71.3594602608
49670 24 59.4697916227 53.9367199098 68.6381041724
49671 20 44.9542711263 93.0475261635 52.6178074276