ITEM: TIMESTEP
17500000
ITEM: NUMBER OF ATOMS
4000
ITEM: BOX BOUNDS pp pp pp
3.23005382 96.76994618
3.23005382 96.76994618
3.23005382 96.76994618
ITEM: ATOMS id type x y z
49081 20 28.3737639661 37.2058941427 23.0639719763
49082 20 26.8447608856 35.6304952755 21.293261814
49083 21 27.4306012315 37.1605272949 24.3203062706
49084 21 27.616090838 35.2006794701 19.9286083243
49085 22 28.917043661 38.5420179651 23.1750038286
49086 22 29.3686542613 36.1460871622 23.2062461526
49087 22 27.0444685558 34.5298113621 22.180487693
49088 22 25.5012474117 35.737879072 20.9077839175
49089 23 27.4248017581 37.0175983393 21.8077312219
49090 24 18.9835747918 36.881497796 21.4683684925
49091 20 52.696474477 52.8567083127 53.8176436269
49092 20 54.9768835129 51.513756078 52.7882371114
49093 21 52.4712304162 52.3084710035 55.2734049717
49094 21 55.1028817479 51.7689329044 51.3681144656
49095 22 51.3707335826 52.965027508 53.4033554436
49096 22 53.4888509052 54.0510256583 53.9603855026
49097 22 55.8057404991 52.4886288362 53.3658459468
49098 22 55.3397247553 50.185115447 53.058006161
49099 23 53.4228117412 51.6821278843 53.1538845507
49100 24 53.6011923159 55.223548209 55.2819171019
49101 20 9.9434306027 20.6816979977 84.8874801136
49102 20 11.341346878 21.1523907361 87.3164304985
49103 21 11.1851352578 19.9258021275 84.4615929837
49104 21 12.5759705633 22.0752553141 87.0294501087
49105 22 9.5759310735 21.5579797093 83.7881057587
49106 22 9.008078449 19.7196402048 85.2758577467
49107 22 10.867791819 21.5358107548 88.5698650561
49108 22 11.9526300746 19.8639722587 87.2045567872
49109 23 10.4000736492 21.5373073931 86.1351151979
49110 24 12.5039635541 27.7696833413 85.7863049393
49111 20 85.662271042 92.5445621623 27.6014050749
49112 20 84.9182547382 93.4915600325 30.1682332612
49113 21 85.049584747 91.0937584318 27.3352840812
49114 21 85.1291871954 92.1664739174 30.8420946457
49115 22 87.0145772659 92.3256788142 27.9460995783
49116 22 85.4052234178 93.1546293403 26.3255209431
49117 22 86.1256676688 94.2599902483 30.314342573
49118 22 83.7658432643 94.1492390157 30.7406038625
49119 23 84.7142442329 93.0903674342 28.6717820632
49120 24 88.8264449809 91.946093931 27.8199142635
49121 20 57.3533580182 56.1203151571 52.7700903723
49122 20 60.2832145267 56.0990816015 52.6720605651
49123 21 56.9335509813 55.5582339439 51.4186260075
49124 21 60.7377248637 55.5429869414 51.3020753016
49125 22 56.3461204573 57.0196076822 53.095422118
49126 22 57.3812329061 55.0014845046 53.6536681956
49127 22 61.3154272389 57.0774153357 53.0299441933
49128 22 60.3236237602 54.9867052016 53.5796781407
49129 23 58.8209053894 56.6971756733 52.4978892856
49130 24 59.3008585771 58.6876110428 52.518374522
49131 20 80.8047444318 46.6270450214 25.2855444199
49132 20 82.7382140068 44.5393281638 25.6189205962
49133 21 81.213794381 47.5726397932 24.1281753317
49134 21 82.0483573007 43.330325055 26.421212253
49135 22 81.3446566905 47.2002574818 26.4965118664
49136 22 79.4075390596 46.6439757419 25.101177292
49137 22 83.5387284056 43.9177555791 24.6387160642
49138 22 83.416752386 45.3334818499 26.6018377852
49139 23 81.511064159 45.2150603462 24.872659335
49140 24 73.8865339928 45.5483429827 27.07561734
49141 20 24.8185932772 59.4835419869 84.3854515113
49142 20 25.5533491317 62.1503643181 85.074840518
49143 21 23.7156644064 59.1007767474 85.3273982274
49144 21 24.8400139126 62.4477276359 86.3797220164
49145 22 25.4535420666 58.2489089476 84.2321396277
49146 22 24.2106775168 59.887540782 83.1315492542
49147 22 26.8874150765 62.6612792101 85.1524786286
49148 22 24.6364711068 62.604032796 84.0092340642
49149 23 25.733881124 60.5684176585 85.1245102008
49150 24 24.4790434679 61.4860440025 82.3638673576
49151 20 40.3928918153 40.7353413612 55.1948314621
49152 20 37.9691796643 39.2927691412 55.3857463824
49153 21 40.705127976 41.9919562752 56.0489442192
49154 21 37.5425442153 39.2953882582 56.8529195941
49155 22 40.7875366211 40.9908923471 53.8472957727
49156 22 41.1817137275 39.6792759764 55.8281900733
49157 22 36.7889868424 39.3496413958 54.6217125416
49158 22 38.7636139701 38.1006032131 55.3201749178
49159 23 38.8496706711 40.6076594081 55.221864491
49160 24 42.2218773306 38.292734152 56.6008295841
49161 20 19.1613005873 65.1326031663 46.1463435145
49162 20 21.2099177699 66.9662656762 46.1846948704
49163 21 19.7323616301 63.9379116611 46.9070099192
49164 21 22.0386812162 66.948212477 47.4818125578
49165 22 19.2846797053 64.8971632572 44.7211697145
49166 22 17.7292048353 65.0834011829 46.319766475
49167 22 22.0536475989 66.2404896514 45.3306756532
49168 22 21.075968644 68.3452307694 45.9178255575
49169 23 19.8526539317 66.4032490641 46.6361183909
49170 24 78.0310995435 35.0091097706 27.4268596358
49171 20 61.7378533928 86.3528760673 38.5340670743
49172 20 62.9693060757 88.250145704 40.196738661
49173 21 62.8733341461 85.8885440416 37.5022285217
49174 21 64.2953275898 88.4579913449 39.4370076552
49175 22 61.0367718995 87.3573074315 37.9104366119
49176 22 61.0158189636 85.1267551582 38.6484663626
49177 22 62.15737981 89.3052756899 39.6828304924
49178 22 63.3787301845 88.4243169836 41.5711202994
49179 23 62.5174148557 86.8115956994 39.827349626
49180 24 61.4453541494 90.6949043308 38.8753941415
49181 20 5.4266136963 14.7309706654 81.5426806426
49182 20 6.7481827115 15.8598100864 79.255069035
49183 21 4.2562145012 15.7281994579 81.8519235267
49184 21 6.1284435087 17.2327886265 79.0557355244
49185 22 6.4264428978 15.1316955643 82.4683514174
49186 22 4.8051720674 13.4467614832 81.8458434337
49187 22 7.9456617056 16.0199503822 79.9894507299
49188 22 6.9135144713 15.3943555821 77.9166067152
49189 23 5.6768983863 14.9273108995 79.9649432781
49190 24 96.5799666586 16.5542502473 88.3198329238
49191 20 3.5064342692 93.8485082618 38.0082793393
49192 20 4.3308219193 91.2801834373 38.977539704
49193 21 3.8875569482 94.7588384942 39.2361775063
49194 21 5.4076438062 91.3705429733 39.9309918268
49195 22 95.6739392612 93.591086478 38.1079928646
49196 22 3.853840494 94.6587508094 36.9011411734
49197 22 96.6217789905 91.2670878523 39.7178144121
49198 22 4.5823413359 90.1241239076 38.1923658475
49199 23 4.4329768357 92.5613993429 38.0593521206
49200 24 92.1531912526 92.9682043348 36.7924478184
49201 20 46.2811344994 66.8259558377 74.2448853204
49202 20 46.8718389197 69.2716498633 75.4625876392
49203 21 45.3823096737 66.1224423073 75.3416405584
49204 21 47.7338090278 70.0402671589 74.5313044708
49205 22 46.9438646368 65.7103990814 73.6371566398
49206 22 45.3426487594 67.4726906535 73.3715033455
49207 22 45.5186908368 69.7360754289 75.2371564986
49208 22 47.31475031 69.5669553035 76.8184483789
49209 23 47.1690151577 67.7933454045 75.0906730272
49210 24 47.4762001642 69.7273762189 78.5518361243
49211 20 40.1444498611 72.076256456 74.4488958257
49212 20 42.715955042 70.9757596223 74.2044760869
49213 21 40.1458529595 73.4159347943 73.5377237342
49214 21 43.1648529855 72.303932554 73.5112519447
49215 22 40.5264667815 72.5545259256 75.7344145664
49216 22 38.795043374 71.6015415022 74.3683579784
49217 22 43.101807098 71.0537718926 75.6072003128
49218 22 43.4295708808 69.9524331999 73.519670535
49219 23 41.1750723952 71.0060665475 73.8798926604
49220 24 41.0432746868 71.4118426005 77.2838093434
49221 20 78.3456742015 63.499116026 96.2444390647
49222 20 76.1973434937 64.8372041862 95.0008261958
49223 21 77.6571270538 62.1477452011 96.7512382015
49224 21 75.7863292066 66.4292531542 95.1575055155
49225 22 79.3016519014 63.8187418382 3.7157494217
49226 22 78.8751099923 63.1301011507 95.0290752433
49227 22 76.894870471 64.8515157898 93.7343895931
49228 22 74.9859083477 64.1337841957 95.095301487
49229 23 77.1502343771 64.5426470652 96.2033750519
49230 24 77.706516117 65.9996244286 92.7289292901
49231 20 93.4345942381 92.9789614224 24.1677427062
49232 20 95.3815335577 92.1047375884 26.149198246
49233 21 92.7477308085 91.705322248 23.524001167
49234 21 95.5377451779 90.5316772186 26.200458107
49235 22 93.4692975382 93.9667426857 23.0477895749
49236 22 92.5915191882 93.4478769028 25.1901337297
49237 22 96.6990429416 92.6410953312 26.3008264116
49238 22 94.431448871 92.3463511304 27.1597097032
49239 23 94.8535944052 92.4450357168 24.7191603716
49240 24 42.5952885809 58.8688913542 8.8071360522
49241 20 61.5744392008 82.6906022016 35.1845906087
49242 20 64.3725915409 83.6624816832 35.1149969287
49243 21 61.8798469494 81.1809618788 35.0479288259
49244 21 65.4344563989 82.4696609759 34.5242925085
49245 22 60.4657108567 82.9192136985 34.3924948002
49246 22 61.4739773564 82.9778632111 36.5610301247
49247 22 64.7853830859 84.8374362712 34.430004297
49248 22 64.5911007294 83.5628616979 36.4896591869
49249 23 62.9156141775 83.3225577144 34.5874319358
49250 24 61.0343398623 88.8623642995 36.7496065477
49251 20 48.0434260715 57.368324401 71.6240846163
49252 20 50.4992224055 56.3025308674 70.9048563839
49253 21 47.7725345432 57.400408584 73.1675863801
49254 21 51.372136681 56.6559245807 72.0813076102
49255 22 46.826378532 56.9671318026 70.9835234334
49256 22 48.6253377419 58.5980933658 71.2642366504
49257 22 50.9229581179 55.0968951948 70.3888903377
49258 22 50.7302659396 57.4270674534 70.0594428368
49259 23 49.0296171566 56.194305212 71.4280250019
49260 24 47.5612279264 60.2197009398 70.4435176348
49261 20 29.9114662566 91.5271287531 47.9163988977
49262 20 30.4365992124 94.1295956383 48.8360831193
49263 21 28.4428899466 91.8390842941 47.6531776406
49264 21 29.0371488828 94.8380667831 48.6546157282
49265 22 29.8725536614 90.9212708703 49.210897468
49266 22 30.1928342529 90.6211013557 46.8432157126
49267 22 30.5895369364 93.7815336988 50.2273954783
49268 22 31.3808844257 95.1417908135 48.4021515587
49269 23 30.5152662618 92.9360266118 47.8309969759
49270 24 24.3937350861 93.8334483391 58.6776022743
49271 20 7.3290093192 29.1063684031 90.1796866036
49272 20 4.8713796033 27.6992478023 89.9055211791
49273 21 8.4019493005 28.4879761747 91.0497946824
49274 21 4.330251326 26.7011771509 91.0450241479
49275 22 7.5771519456 30.4684027758 90.5681577766
49276 22 7.7999639692 28.7376341474 88.8902391875
49277 22 3.7777972385 28.419037274 89.3204291524
49278 22 5.5574105278 26.8419546889 89.043551071
49279 23 5.8849217529 28.5918054552 90.656459435
49280 24 9.0981386574 27.9135476957 87.9166759878
49281 20 16.3062759927 81.3838499054 21.9845216185
49282 20 18.2153316558 80.9853699639 19.861072522
49283 21 15.2127011111 82.3963257003 21.5963310652
49284 21 18.0591200356 82.302692268 18.9858197492
49285 22 17.2978923916 82.0777288269 22.7720339723
49286 22 15.6067846776 80.4879248163 22.8255387907
49287 22 19.3957115575 81.3213652573 20.6375471685
49288 22 18.4312217274 80.0314501416 18.8364365411
49289 23 16.835244084 80.7347765923 20.634553892
49290 24 21.0814874977 81.8579100798 21.0977634389
49291 20 19.3572666618 18.7995818235 47.085296954
49292 20 18.7612304677 19.3850480098 49.6018006782
49293 21 18.0981261707 19.3740103025 46.3474542831
49294 21 17.6380034402 18.2605114239 49.3196843628
49295 22 19.007708084 17.431373818 47.2575038959
49296 22 20.5058430001 18.9948931188 46.1631806952
49297 22 19.662113171 18.7438320477 50.5350481843
49298 22 18.0676321658 20.5042528219 50.2169190104
49299 23 19.5938290496 19.7364773854 48.315814238
49300 24 19.8746358064 15.9347355402 47.2138207661
49301 20 64.3910188997 25.267210601 72.052777943
49302 20 66.8023837848 25.0975292362 70.5798987979
49303 21 64.2115158462 26.8910631323 72.0408983767
49304 21 67.4857862384 23.937634571 71.3034298653
49305 22 65.1399928178 24.9449656718 73.1962095872
49306 22 63.0879146592 24.6913790236 71.8590568259
49307 22 67.1224772965 24.9650767487 69.2068267179
49308 22 67.3708257107 26.2335712289 71.2523570841
49309 23 65.1886335618 25.0497303512 70.7337719208
49310 24 66.3619979716 24.6008324078 67.5893348992
49311 20 71.7779577392 85.6045569284 84.8955245443
49312 20 73.8188111107 85.5216805838 86.7748345217
49313 21 70.4692411052 84.9507130808 85.2796928823
49314 21 75.1339819973 85.7277489667 85.8616045526
49315 22 71.9801909865 85.4416104359 83.5283454776
49316 22 71.5839560025 86.9277722457 85.3422710702
49317 22 73.4617693416 86.8149631356 87.2729344485
49318 22 74.3057797904 84.6387575398 87.7880586358
49319 23 72.8035291191 84.8205055507 85.7966878673
49320 24 70.6376129115 92.0597449002 84.1886435778
49321 20 84.1497309825 3.3048442022 28.0607794863
49322 20 81.8408858194 95.2872453462 28.2899522226
49323 21 83.8015755032 4.5437467763 27.300674321
49324 21 80.7195295898 96.1726939672 27.6050531307
49325 22 84.6441828536 95.9212587366 27.0840359303
49326 22 85.1931684818 3.6431512404 28.9331325225
49327 22 82.2897837629 94.4216271823 27.2511917179
49328 22 81.1619732807 94.7553775182 29.4469471512
49329 23 82.8489652394 96.3419076325 28.7836557745
49330 24 83.3875679396 20.1660125711 37.4143010228
49331 20 3.7261014816 50.737749131 17.9102980669
49332 20 5.4985552275 51.5180589131 20.0472169078
49333 21 4.3426827777 51.007144021 16.4790441739
49334 21 6.7355174101 52.2305522732 19.6449953707
49335 22 95.9099404096 50.9422273357 17.7724202655
49336 22 4.0874638583 49.4259456806 18.1653813533
49337 22 5.2534432936 52.1784505532 21.2456500087
49338 22 5.8949118134 50.159017817 20.2168047327
49339 23 4.4682507292 51.7841799069 18.8427037139
49340 24 15.1202836974 57.3722530764 42.2341310565
49341 20 75.8425466819 48.3874657956 30.3326763919
49342 20 76.4093048898 45.9839582614 28.9393996952
49343 21 75.0400679454 47.8617716005 31.5210071845
49344 21 76.793192608 44.6242623861 29.6972599031
49345 22 74.8947069527 48.8297224067 29.3802532079
49346 22 76.6678491522 49.3440047349 30.8550031509
49347 22 75.037822988 45.7871503279 28.638949561
49348 22 77.1731516508 45.9315759217 27.7358219002
49349 23 76.7088196251 47.1716342747 29.9251230809
49350 24 74.2671478148 44.6531662128 23.7992890702
49351 20 62.7583736184 58.8347492935 15.4655394401
49352 20 61.9239042387 56.1521187205 14.90953832
49353 21 62.3432435761 58.4236414666 16.8651768495
49354 21 60.7274354755 56.2501485277 13.8860248178
49355 22 61.7232611696 59.7592975896 15.0599504669
49356 22 64.1045062094 59.3889731557 15.5428033912
49357 22 62.7088910154 54.973328997 14.5560510667
49358 22 61.2178651311 56.1156381625 16.1262116999
49359 23 62.7578123791 57.5115339762 14.6233997892
49360 24 51.9304762985 57.6084413046 15.2917423201
49361 20 51.4528616081 9.9063326813 11.2451691607
49362 20 53.6172811774 9.4379036084 9.419158214
49363 21 51.1830925585 11.449956047 11.1543045092
49364 21 53.4487222914 10.576630196 8.424941406
49365 22 51.2651270441 9.6792739466 12.634461058
49366 22 50.6631042969 9.2776697728 10.2330394634
49367 22 55.0097160151 9.2595230336 9.5017165229
49368 22 52.9784972525 8.3636072986 8.7502076737
49369 23 53.0543581052 9.9312704166 10.8221162895
49370 24 52.4791813071 3.4970531534 5.7568656403
49371 20 6.6297705618 22.754916172 83.9813591763
49372 20 7.2611835432 24.6216918038 86.0639313398
49373 21 5.2220793677 23.0709874683 83.2808389224
49374 21 6.8227807757 25.9884031711 85.4245861755
49375 22 6.6071151999 21.3254395369 84.0027798116
49376 22 7.6174957012 23.2908997552 83.121259866
49377 22 7.0612233153 24.796143703 87.4790963713
49378 22 8.6861422015 24.5556526398 85.8785352731
49379 23 6.4642236603 23.4940684014 85.402417221
49380 24 6.7923428947 25.2393357131 89.2177223506
49381 20 8.1563509591 43.3128330952 49.8595030817
49382 20 10.5697550139 42.7529032995 51.3195672615
49383 21 7.9823386974 44.8220057185 49.585431197
49384 21 10.8187114374 44.0549786012 51.8569539431
49385 22 7.4445685022 43.0947916061 51.1128440994
49386 22 7.4870449673 42.7047302549 48.700824435
49387 22 9.7908109143 42.1248764622 52.2775092992
49388 22 11.8112819432 42.2377791123 51.1069510862
49389 23 9.7356972097 43.0664490187 49.9748377689
49390 24 94.5286368191 39.7830117171 52.286302049
49391 20 23.6357813383 16.539751564 44.3883547775
49392 20 22.7891517726 15.1273927293 46.6645545182
49393 21 23.5803121822 15.9206110165 42.9809535571
49394 21 23.7107067921 15.3398218248 47.8397897258
49395 22 24.7685494348 17.3542034068 44.500883268
49396 22 22.4332324821 17.285358046 44.4310089684
49397 22 21.7046502606 15.9904853161 46.8362937606
49398 22 22.5517475258 13.7377640884 46.831616766
49399 23 23.683860843 15.3038089663 45.3679980702
49400 24 21.5948344269 12.1299630025 46.2706580315
49401 20 21.3948461371 83.3230254139 23.7086489145
49402 20 22.0530863596 82.8118299021 26.5292508287
49403 21 21.1981317434 84.826305024 23.3843461077
49404 21 21.5156061381 84.0988452811 27.2661581007
49405 22 20.0720985192 82.7916252854 23.8301572346
49406 22 22.004913315 82.8769336672 22.4919755345
49407 22 21.0451940194 81.8528589256 26.7142727358
49408 22 23.2290698863 82.6412131385 27.2921621908
49409 23 22.2971319388 83.2860771564 25.0059536816
49410 24 18.738313194 81.6907542922 23.8399789233
49411 20 20.1274741355 38.3016204418 19.2731742985
49412 20 22.7721275122 37.6727517454 18.9319407712
49413 21 20.2928526652 39.8145346608 18.9708533664
49414 21 23.3382309407 38.8230118018 18.0628616313
49415 22 20.0503972642 38.1538274118 20.742311848
49416 22 18.883487107 37.9787207333 18.6825634182
49417 22 22.9846501476 38.0585102615 20.3137120612
49418 22 23.5453282624 36.5745934091 18.5626452762
49419 23 21.2612711708 37.5411411169 18.4919291176
49420 24 24.2392071839 35.078235751 19.6801663702
49421 20 20.6552262082 11.8638981327 49.2469103266
49422 20 19.1341740185 14.2278195844 49.8230225236
49423 21 22.1383947414 12.3772731239 49.5143408788
49424 21 17.9251709097 13.9206345779 48.9893950029
49425 22 20.5412946193 12.0421945215 47.8111665188
49426 22 20.6332443335 10.4409879981 49.569810035
49427 22 18.5552556247 14.9182375299 50.9372697214
49428 22 19.9552671936 15.03983939 48.9814441121
49429 23 19.7086024975 12.79778171 50.0710903182
49430 24 17.3575708429 22.0360620992 51.0398829833
49431 20 13.9730169176 3.3249631364 69.6359877441
49432 20 12.191278402 94.7060819949 69.4884753338
49433 21 15.2613418551 96.5164530717 68.8456691935
49434 21 12.7339875034 93.8982714845 68.3380281977
49435 22 14.5918768455 4.0864732709 70.6673585972
49436 22 13.181014649 4.0956813379 68.754000099
49437 22 11.6533959589 93.708385503 70.3135907243
49438 22 11.1166640566 95.5126764868 68.9666162743
49439 23 13.3059839452 95.5622526297 70.1376421868
49440 24 7.1526117902 4.7140735663 66.6120301039
49441 20 53.5658342366 34.7841463295 73.7581972605
49442 20 51.9997893587 32.472962669 72.9862125288
49443 21 54.5217183967 34.5556283724 74.9487730104
49444 21 53.144062862 31.401463202 73.2912461178
49445 22 53.2466761239 36.1478644202 73.9955079674
49446 22 54.4841153599 34.6102556696 72.6968936418
49447 22 50.7933118271 31.9106008362 73.4730876686
49448 22 52.0727504748 32.6231877362 71.6037864597
49449 23 52.3557086492 33.819937119 73.7571683217
49450 24 54.584015965 35.0545701583 70.920477546
49451 20 67.6332051088 58.5693766189 41.1175453614
49452 20 68.5938598033 55.8770178971 41.0284953838
49453 21 66.8284814148 58.1172983191 42.4049348999
49454 21 68.0176540664 54.6728788627 40.2748444711
49455 22 66.6925679512 59.3956144881 40.4091677565
49456 22 68.7077913922 59.3514636589 41.6492261095
49457 22 69.9752569337 55.5683362523 40.9485187759
49458 22 67.971913059 55.6187542543 42.2635025827
49459 23 68.0053068006 57.1867634699 40.4058003204
49460 24 73.9617400663 50.9192165222 39.8865603779
49461 20 56.7028816067 74.0140288661 6.8304791088
49462 20 57.3753398929 75.3830787307 9.2586811746
49463 21 57.0348546847 74.3824825021 5.2978092645
49464 21 56.9518848002 76.8432364504 8.9346870495
49465 22 55.347020867 74.4572208761 7.0087661437
49466 22 56.9301835451 72.5792204572 6.9105211947
49467 22 56.2366787832 74.9000387265 9.9689669933
49468 22 58.5400050927 75.5213306916 10.0770149229
49469 23 57.656801429 74.7476622419 7.808803489
49470 24 57.3805781269 71.0416117066 8.001785641
49471 20 4.0430773086 40.6993285026 56.7702303292
49472 20 95.186596422 40.8877178458 55.2019404939
49473 21 3.927148643 39.9682207039 58.1310486833
49474 21 94.1893676295 40.8746222609 56.3579064837
49475 22 4.0589136124 42.0782935958 57.171890627
49476 22 5.3314368559 40.3334939836 56.2445361341
49477 22 95.32737396 42.2311377799 54.7433144017
49478 22 94.6516417776 39.992541076 54.1555097181
49479 23 96.4184232645 40.183643076 55.9434312206
49480 24 96.4677187877 43.8183226735 54.1296927078
49481 20 80.3372320497 65.2843248717 90.9505488566
49482 20 77.8458905566 65.6788761377 89.7453808834
49483 21 80.8347707372 66.8232431808 91.190010981
49484 21 77.1716550125 64.2263886891 89.6404291242
49485 22 81.5245339035 64.5180460735 90.8280115976
49486 22 79.5934963656 65.0686218799 92.1593648855
49487 22 77.2980274071 66.2743510924 90.952793814
49488 22 77.4934322422 66.3176600626 88.5084093468
49489 23 79.3562791986 65.3549474904 89.764837181
49490 24 42.7453265682 31.1270171579 64.9584318867
49491 20 54.4228467304 66.678817587 5.5513865587
49492 20 55.7967606694 68.3222199559 7.2689567083
49493 21 55.3375733378 65.4294052448 5.4089065947
49494 21 56.9329897419 67.3646520778 7.78015222
49495 22 53.8557143631 66.9298786581 4.2720882209
49496 22 53.4136448318 66.3082125335 6.5260722371
49497 22 56.3915808449 69.6033423216 7.2088105575
49498 22 54.7806368187 68.1735850669 8.3126280573
49499 23 55.413060031 67.7561165273 5.863098896
49500 24 52.4144517016 65.6141465322 8.0100452135
49501 20 18.3583541513 11.2525681662 24.1309815285
49502 20 17.8789622029 13.2304972521 22.1975119534
49503 21 17.3550452658 10.1428763611 23.6330686814
49504 21 19.0640190992 14.2126661219 22.1523321854
49505 22 18.2527476128 11.1565120507 25.5421243446
49506 22 19.642095634 10.8652007639 23.5704904935
49507 22 18.0820373092 12.1576695186 21.3000902261
49508 22 16.7618152685 14.0774074375 21.927555824
49509 23 17.8320987168 12.7106960702 23.6229663731
49510 24 13.5446977505 7.3475956958 12.9795297209
49511 20 22.4144309638 57.6326681368 46.0328796251
49512 20 25.0574941623 56.6650914902 46.3760774902
49513 21 22.0882573591 58.4677922958 47.2980066693
49514 21 25.4026563651 57.1659040739 47.7864719872
49515 22 21.1728759725 57.0074474962 45.7391643631
49516 22 22.8634224471 58.5619869674 45.0811112203
49517 22 25.7656846874 55.4258749962 46.2454022605
49518 22 25.5003120127 57.7100256278 45.5487171422
49519 23 23.5043577896 56.5655650447 46.4469807286
49520 24 17.4795468625 53.9104352001 38.703748439
49521 20 10.4076503805 12.357208817 75.402815648
49522 20 7.6944977406 12.1885844531 75.6357299799
49523 21 10.8043998339 11.6413386668 76.7349172551
49524 21 7.0713723936 12.6117308641 74.2320703552
49525 22 11.3619724243 13.393069585 75.3239615187
49526 22 10.4378544117 11.3178496571 74.40165818
49527 22 7.8474261106 10.7977585015 75.6527542403
49528 22 6.7653846978 12.6793602063 76.5753381987
49529 23 9.0273476668 12.9694274125 75.61833156
49530 24 4.3784804945 11.5597905886 81.5592372035
49531 20 7.4549701382 9.0808805472 71.9908545342
49532 20 7.185771682 6.9333168665 73.8174080124
49533 21 6.1997115527 9.9034610066 72.3373262955
49534 21 6.0241465287 5.9493894468 73.9608046673
49535 22 7.6920376414 9.2427981009 70.5741928644
49536 22 8.4663141004 9.6262929516 72.8059611563
49537 22 8.3803041694 6.2116846589 73.7147947504
49538 22 7.1559231023 7.7244492141 74.9843181695
49539 23 6.9067515371 7.6752472307 72.4511643445
49540 24 14.7156301231 11.6857888236 72.302155296
49541 20 83.7911925751 89.4793534295 21.2878365002
49542 20 83.0045220804 89.4098532895 18.5151270109
49543 21 82.6929406989 90.2857608416 21.9620720443
49544 21 84.4050948887 88.8775177621 18.0029025603
49545 22 84.7869247293 90.4242934222 21.0631536787
49546 22 84.2566470795 88.4101924599 22.1803006132
49547 22 82.0941918479 88.6896896582 17.6860829449
49548 22 83.0808506325 90.8311919539 18.36817584
49549 23 83.1214469458 88.8858428125 20.0047497967
49550 24 85.8930339565 88.0493155551 22.7336826164
49551 20 7.5992647762 43.3686764109 55.5101544392
49552 20 5.3915549447 42.7621637488 53.8415898393
49553 21 8.1548730288 44.7213567943 55.1185029099
49554 21 5.1732889598 43.4584747076 52.4832035225
49555 22 8.8262649602 42.7024852975 55.7877808398
49556 22 6.6668778371 43.6259111149 56.6012972836
49557 22 4.9521980703 41.3869402514 53.6137266615
49558 22 4.5824722917 43.4742829494 54.7596838828
49559 23 6.9638950573 42.8253031762 54.1713179599
49560 24 94.8730507028 40.6343182774 49.50461273
49561 20 26.4218670323 95.4375639532 57.2208119907
49562 20 27.4443515957 93.1218903779 58.2580758571
49563 21 26.7663744558 3.2397503523 57.9652024541
49564 21 28.1554418574 93.3752899463 59.5950415386
49565 22 25.1051059675 95.1322497445 57.6549306312
49566 22 26.3923084263 95.8713084341 55.8812271922
49567 22 26.11103397 92.7676548056 58.4685406149
49568 22 28.1966929499 92.0775174797 57.5937555415
49569 23 27.5745591258 94.4620364158 57.5222910638
49570 24 30.8530388131 93.2790373971 51.9142938971
49571 20 66.5520710329 87.5989209734 85.4401137976
49572 20 67.6002790666 86.1827270031 87.6858195334
49573 21 65.518735842 86.7897073646 84.637728601
49574 21 67.4002907768 87.0577926961 88.9718059736
49575 22 67.8005479762 87.4753547756 84.7514731101
49576 22 65.9578120967 88.8575002251 85.616249415
49577 22 67.4006649364 84.8946826853 88.2086139918
49578 22 68.941734663 86.4118997394 87.1893097848
49579 23 66.4481482124 86.7101049162 86.7574361018
49580 24 63.9384729004 6.92333616 84.5845044022
49581 20 87.7673863196 45.9614151473 27.9872571309
49582 20 90.2643402062 45.1487405625 26.8072513888
49583 21 87.950350349 47.3022159644 28.5215569961
49584 21 91.210028518 45.7029644247 27.8782831563
49585 22 88.1574476707 45.104870353 29.0646496111
49586 22 86.3999266332 45.9372818551 27.5424749427
49587 22 90.0424635815 43.8038239902 27.1646673175
49588 22 90.8996631551 45.3459226556 25.5410018659
49589 23 88.9055797298 45.98517428 26.9535477804
49590 24 84.9512743202 44.7030229754 27.8403994999
49591 20 87.0982019296 63.5189464832 76.9206874813
49592 20 84.9407978522 63.0720128775 75.3281708139
49593 21 88.5422707879 63.072480577 76.6821607558
49594 21 85.4411427365 64.0667160929 74.2144848554
49595 22 86.8398447469 63.2541350479 78.3014298324
49596 22 87.0389911778 64.901746712 76.5584074782
49597 22 84.250099287 62.001822969 74.5564667019
49598 22 84.1640425861 63.9226646586 76.196221015
49599 23 86.2509175846 62.5999170408 75.9778989062
49600 24 85.293817406 71.8086388239 77.5149464174
49601 20 92.6076080497 94.7456493694 39.4019301956
49602 20 93.7128754179 93.134892423 41.4596207477
49603 21 93.7624515608 95.7194931888 39.0981126252
49604 21 95.1194347793 93.731022157 41.6988957924
49605 22 91.4545417966 95.6209021422 39.3479576777
49606 22 92.6683154399 93.6496424506 38.4964640376
49607 22 93.3575173668 92.5893677707 42.708191231
49608 22 93.8357868364 92.0587159614 40.4855898486
49609 23 92.7941265951 94.2772015885 40.9019359095
49610 24 67.7838043355 30.1282917271 11.1813001222
49611 20 63.0493762236 23.8627091172 11.2322325936
49612 20 65.3855350352 23.8462460961 9.7402058325
49613 21 62.2536323592 25.0105371363 10.4019070311
49614 21 65.7645586791 22.4363192986 9.8794586703
49615 22 62.684851263 24.2654918937 12.605744311
49616 22 62.5677393178 22.5664332889 10.839112488
49617 22 64.7378648205 23.9829078789 8.4660521887
49618 22 66.6215711729 24.578102214 9.7385034065
49619 23 64.580156562 24.1172311643 11.0230586863
49620 24 22.4683099418 24.9794818921 47.460766082
49621 20 47.478164502 28.4584175687 73.9653881221
49622 20 45.427302362 27.5297535174 72.2336840948
49623 21 48.6166385319 27.3843925246 74.0153384246
49624 21 45.8370070905 26.4404814708 71.2418806161
49625 22 46.7532303362 28.1636733679 75.1591442284
49626 22 48.1402398601 29.7567512747 73.9026228543
49627 22 44.7927277322 26.7901335885 73.3195887052
49628 22 44.5433503792 28.3760089236 71.5500010215
49629 23 46.7384510332 28.2587098985 72.582026654
49630 24 51.8137385128 37.7398198483 73.5074168091
49631 20 55.3251325321 73.5446456862 65.8973853262
49632 20 53.7352349817 71.7352100084 67.3901884684
49633 21 56.6313235891 73.024283265 65.1660904478
49634 21 52.8986141844 72.4735203788 68.5826350162
49635 22 55.7167840615 74.7823655419 66.4914571826
49636 22 54.3075120432 73.5920704117 64.9123167198
49637 22 52.8417419299 71.6962038733 66.3205597993
49638 22 54.0187543954 70.4524039246 67.9807993488
49639 23 55.0829577508 72.5175776681 67.0122873033
49640 24 51.6786669083 70.9879198084 65.1216589989
49641 20 53.6210227731 36.8292089961 11.8096637031
49642 20 56.0938433676 38.0883494872 12.4014906021
49643 21 52.9970181512 36.3179199445 13.1140400861
49644 21 57.237087932 37.890419075 11.2728008449
49645 22 53.3211338782 35.833476842 10.823425848
49646 22 52.9593215746 38.0590715009 11.5595380309
49647 22 55.6238989483 39.3542248505 12.1874339124
49648 22 56.7735042254 37.9471977896 13.6490882704
49649 23 55.1335628326 36.8798140779 12.2280489336
49650 24 55.3719024783 40.9234500847 11.2149744834
49651 20 79.6564487131 60.6560645376 53.4579827407
49652 20 80.9536599404 59.6473303384 51.2253725899
49653 21 80.5193542202 59.8672426254 54.5563281568
49654 21 81.8355540456 58.5638577652 51.9202804502
49655 22 78.2810381359 60.5901189135 53.892288461
49656 22 80.1855103443 61.9104344942 53.396901191
49657 22 80.6471297131 58.9706627571 49.9914878698
49658 22 81.6658726808 60.8300487374 51.0672901718
49659 23 79.7606521532 59.7809053047 52.1487984073
49660 24 76.8294860862 59.3844832409 53.4490029111
49661 20 34.4641463577 24.4552843353 9.9328512408
49662 20 33.8838248655 27.0932963796 10.6758666678
49663 21 33.8318166853 23.9370733316 11.2833521447
49664 21 34.0982182988 28.2607677762 9.6081929824
49665 22 35.6707174292 23.6888184573 9.8548389706
49666 22 33.504520602 24.2752200425 8.9226858813
49667 22 32.4917641874 26.8629076247 10.521871943
49668 22 34.2236552944 27.6660411405 11.8899770547
49669 23 34.8414862835 25.9897127296 10.1876819696
49670 24 47.0590122443 40.8242977988 68.9606297212
49671 20 55.3123175669 79.2725609949 65.8144154417