ITEM: TIMESTEP
17750000
ITEM: NUMBER OF ATOMS
4000
ITEM: BOX BOUNDS pp pp pp
3.23005382 96.76994618
3.23005382 96.76994618
3.23005382 96.76994618
ITEM: ATOMS id type x y z
49081 20 26.650665609 33.434085063 25.197710461
49082 20 25.764281589 32.0467949194 23.0207565461
49083 21 26.4408556304 32.7675197901 26.5847199849
49084 21 26.3110222598 32.9129743227 21.8687192318
49085 22 26.6012765458 34.8270811401 25.4238899207
49086 22 27.945444799 33.0176454622 24.824018591
49087 22 26.6407503804 30.9814690854 23.1691108153
49088 22 24.431244583 31.7114544053 22.6099293388
49089 23 25.522668047 32.9636729444 24.2331270909
49090 24 19.5739050525 35.829080467 23.2184998785
49091 20 57.495164495 55.671978453 58.1126213245
49092 20 58.9839454218 53.3961528719 58.5055824123
49093 21 55.9713996485 55.3940714328 58.0743635085
49094 21 58.3402038826 52.9634373298 57.1709552281
49095 22 58.0269387831 55.729318407 56.7639631564
49096 22 57.5433375396 56.8792043038 58.8053777673
49097 22 60.3195080049 53.8263428369 58.1702418982
49098 22 58.9060266915 52.2143698718 59.3194730157
49099 23 58.1050445932 54.6139487305 59.0267866925
49100 24 58.4463716604 58.364150095 59.1193911859
49101 20 9.4680982856 25.3658016475 85.1883044074
49102 20 10.4833054454 25.3241763954 87.8848724244
49103 21 10.5238549887 24.6700519281 84.2747938186
49104 21 12.0185850527 25.3529866823 88.2887776796
49105 22 8.9683801187 26.382954437 84.3391492646
49106 22 8.5027572425 24.3497713367 85.5576934423
49107 22 9.9451049667 26.2582657605 88.8069886833
49108 22 10.0438269691 23.9917941686 88.004229327
49109 23 10.3878666932 25.9209609087 86.4241534653
49110 24 14.3308070059 31.0672451666 86.8098184415
49111 20 86.9901633539 93.2639774744 20.1768631986
49112 20 86.3235045411 93.8997681228 22.8072985117
49113 21 86.2520400633 92.0537583471 19.5081465082
49114 21 85.8582371165 92.6023698158 23.3451528928
49115 22 88.2256382522 92.7278068114 20.664018958
49116 22 87.1737821626 94.2154652595 19.1688773186
49117 22 87.6885321903 94.0895605644 23.1088711247
49118 22 85.5443172377 94.9288004786 23.3827559295
49119 23 86.0528000926 93.8860177586 21.248923905
49120 24 89.6143314942 92.0554420651 21.9636622225
49121 20 65.0823722441 55.6311015201 59.581665334
49122 20 65.5737372987 54.8706221952 62.3212617014
49123 21 66.3506796446 55.2059627093 58.8019167913
49124 21 66.8412028401 54.0594442486 62.4086279609
49125 22 65.178063554 57.0052960787 59.8489088065
49126 22 63.993567897 55.3015604793 58.7425189596
49127 22 66.0108492157 56.2039398209 62.7692242459
49128 22 64.731410568 54.211165954 63.2656404547
49129 23 65.0431790292 54.7201165084 60.8780347022
49130 24 65.6161108699 58.0272194027 63.4642256462
49131 20 83.8671469677 46.5625024956 27.6112267636
49132 20 85.0850363662 45.0042214288 25.6020834156
49133 21 84.4601898853 47.9455833441 27.0438137766
49134 21 85.0258256144 43.4841046381 25.9402301265
49135 22 84.7309878737 46.2173402928 28.6518580661
49136 22 82.5311166851 46.8483604067 27.9243983232
49137 22 84.9143260627 45.0323769364 24.1902858202
49138 22 86.2888947809 45.4092491627 26.1441470918
49139 23 83.8779040553 45.5662091021 26.4063394101
49140 24 78.0363377775 46.1602809585 31.1643395749
49141 20 17.7542735264 58.8057519269 79.2310292827
49142 20 19.3094677768 61.2362924899 79.1807048206
49143 21 16.7754720928 59.2860792741 80.3461183395
49144 21 18.3843582413 61.9822731315 80.2409795005
49145 22 18.0032767199 57.4996544098 79.7134145076
49146 22 17.0530984933 58.8440097428 77.9516841749
49147 22 20.6248257431 61.706330449 79.4278372162
49148 22 18.8402716767 61.614287195 77.8932217422
49149 23 19.0830076974 59.6735215083 79.3448673317
49150 24 19.2288363896 60.6443720511 76.4153849828
49151 20 42.6356042745 38.467373131 58.0844658169
49152 20 40.6963352261 39.6342832882 56.4321771582
49153 21 43.4644612607 39.716130694 57.8799876122
49154 21 40.1720441294 38.4755111017 55.4980877931
49155 22 43.280842452 37.5847307067 57.1596369011
49156 22 42.8319445085 38.1246429654 59.4076811342
49157 22 39.4828422025 40.343596292 56.7395492445
49158 22 41.6812167527 40.2863498779 55.7142584844
49159 23 41.1616961906 38.9350725928 57.7776549699
49160 24 42.8623449736 37.3139327183 61.0760586543
49161 20 19.5542616751 69.2301181511 48.7787431653
49162 20 19.5904616134 71.9648504442 49.4713125284
49163 21 20.3913501718 68.2987414429 49.698427387
49164 21 20.0771496734 72.1926200821 50.8804910068
49165 22 20.4200669188 69.4980164028 47.6418593136
49166 22 18.461996352 68.3909717768 48.4733354168
49167 22 20.6912390667 72.1173204687 48.5709910644
49168 22 18.4753725566 72.8242014353 49.2975154084
49169 23 19.0909585882 70.4750405785 49.5878632342
49170 24 78.8623885669 36.2772300913 26.8373712341
49171 20 70.4116205315 89.1454160138 36.9636258214
49172 20 69.1515446415 91.2843927324 38.1943301852
49173 21 71.8699074534 89.3523262557 37.688747067
49174 21 69.4837983392 91.4009434383 39.7064025452
49175 22 70.5660548938 89.6838316342 35.6530383896
49176 22 70.1561630855 87.7528876362 36.7853387866
49177 22 70.1880601888 92.1933198665 37.6677005912
49178 22 67.7924100056 91.594103316 38.2719682959
49179 23 69.3278673386 89.7617503646 37.8517870994
49180 24 70.5431376202 91.2345359698 34.7314833701
49181 20 96.5056024442 22.3112564625 80.0468842238
49182 20 5.3335321494 22.3364186936 78.4365949769
49183 21 96.0158275678 23.8056497828 79.8418447798
49184 21 5.5264768854 23.7539222224 78.0408276923
49185 22 3.7809261479 22.2866554708 81.2170682773
49186 22 95.342153263 21.54002005 80.1474396081
49187 22 6.2406259016 22.0617855696 79.5129585183
49188 22 5.6661319447 21.6091460305 77.2235696527
49189 23 3.7486006319 22.1180030449 78.6675449711
49190 24 94.6555704531 25.3415748154 86.0752496668
49191 20 92.4396104031 94.4889759048 35.2753243042
49192 20 94.9046671864 93.4777161285 36.0074610417
49193 21 92.290227195 96.0314487298 35.4856955222
49194 21 95.8773885271 94.6097359058 36.4975165378
49195 22 91.227426938 93.8825567826 35.5932663984
49196 22 92.8096542172 94.4690519077 33.8914015968
49197 22 95.2866841068 92.3739453986 36.8131201346
49198 22 95.3355119306 93.4358102567 34.6547806583
49199 23 93.5400136968 94.0795517959 36.3283964124
49200 24 85.6017507316 91.6745476234 31.324199251
49201 20 44.2460806012 63.9404372382 73.5993665233
49202 20 44.7168668795 65.6340705292 75.6632307083
49203 21 43.5917690542 62.6783970105 74.0260955122
49204 21 45.493341526 66.6897617544 75.0106964192
49205 22 45.1483664029 63.500893284 72.6133625179
49206 22 43.2376270217 64.8171866493 73.2177237624
49207 22 43.3185390286 66.0175840879 75.6937247132
49208 22 45.260427194 65.4110714259 76.9658672493
49209 23 44.9346277489 64.4079496202 74.9075219179
49210 24 45.7296232941 64.7309428685 78.5160103455
49211 20 36.9235907475 66.2403025716 75.9192493937
49212 20 39.6699219872 66.6243773697 75.071684429
49213 21 36.3393405798 67.6674407094 76.1794773742
49214 21 40.009845956 68.1455230992 75.3719474835
49215 22 37.3293668006 65.8058097716 77.1921402489
49216 22 35.8246840921 65.5799109316 75.3371506435
49217 22 40.2212461128 65.9339594241 76.1802256934
49218 22 40.4216085622 66.3298202486 73.884663195
49219 23 38.0988259551 66.4931409007 74.8652418866
49220 24 38.1548563507 64.3060846774 78.0639320457
49221 20 78.3502576562 59.1973099163 4.9266149097
49222 20 76.3557065314 60.420250469 3.3200340518
49223 21 78.25138599 57.7857929406 4.327585439
49224 21 75.1832775206 59.4539833809 96.5984875573
49225 22 78.4589510111 58.9769299299 6.3348205732
49226 22 79.5297956989 59.771083616 4.3520554749
49227 22 75.8536779291 61.7247578078 3.4280525164
49228 22 77.0875626493 60.2101598707 95.6436323361
49229 23 77.0212428656 59.9381458638 4.6459110467
49230 24 76.0117603472 63.4839625635 96.4262806154
49231 20 94.5717587095 92.9290111199 16.9991259754
49232 20 96.4901683619 93.3820248186 18.9342792685
49233 21 94.8741731815 91.4388270947 17.514811402
49234 21 4.0549540688 92.3168860643 18.7353199175
49235 22 94.4654973918 92.870642227 15.5698364201
49236 22 93.4219663526 93.3349742527 17.7125547344
49237 22 3.6956935334 94.3927233555 19.5549164543
49238 22 95.5241818935 92.7042347585 19.7773543184
49239 23 95.936505739 93.7113787796 17.5215462742
49240 24 45.5721021153 57.4307155092 16.1035750459
49241 20 69.2109424732 83.6394708697 34.4898698281
49242 20 69.7753621837 85.8529988825 32.7872567074
49243 21 70.2852481369 82.4639550424 34.4589081237
49244 21 71.328030857 85.8005230029 32.5585516705
49245 22 67.9717259792 82.9731862164 34.7114658331
49246 22 69.6057743588 84.5106078873 35.544906274
49247 22 69.305791924 86.3081639987 31.49013902
49248 22 69.4889430333 86.8030835692 33.8571659962
49249 23 69.3482590352 84.3315725333 33.0609544324
49250 24 68.130930876 88.4157113135 33.843415632
49251 20 45.2920436776 56.4495755782 65.1433602539
49252 20 47.2474015875 57.7324752019 66.7254939933
49253 21 44.5474661344 55.5148314338 66.0484522524
49254 21 46.8786673318 57.3347435796 68.1012787301
49255 22 45.3374105254 55.6625309239 63.9771984159
49256 22 44.5557911848 57.6723290511 65.0787241883
49257 22 48.6765976029 57.7348136992 66.7574846365
49258 22 46.6696992123 59.0227644771 66.5433718229
49259 23 46.7335869588 56.5567722948 65.7550176101
49260 24 44.8671854865 59.4110485703 65.4953508689
49261 20 34.094570243 86.081984539 46.1091146374
49262 20 33.1122142934 88.5920340106 46.630880157
49263 21 33.0155875846 85.0519232444 46.2828182175
49264 21 31.6165114146 88.8860298923 46.5316343312
49265 22 34.6778850117 86.1199617353 47.4518797922
49266 22 34.9775868269 85.4913736587 45.1458408259
49267 22 33.3077126685 88.3112272537 48.0314529653
49268 22 33.6858009134 89.7853224174 46.1163172091
49269 23 33.383667061 87.3512273385 45.6956683131
49270 24 28.2359797047 84.3875093889 50.8618765682
49271 20 9.0025502414 34.576861928 89.3185583546
49272 20 6.5071958869 34.1908227922 88.1124549825
49273 21 8.4252220257 33.7560493725 90.3971668534
49274 21 5.4045756977 34.1043919317 89.2091166805
49275 22 9.8243075497 35.63526581 89.8510809618
49276 22 9.7303934978 33.6727988683 88.4687484325
49277 22 5.8443628556 34.8347514112 87.0783714724
49278 22 6.7714741447 32.8509573741 87.8050828962
49279 23 7.6908777468 35.0854383228 88.6949278922
49280 24 11.1489446734 32.605976396 88.1140451607
49281 20 19.1960038874 88.4697773713 30.469899414
49282 20 16.8936129768 88.1500580192 28.7687829316
49283 21 20.007088294 88.9997744014 29.3197328976
49284 21 16.258196488 86.7342382084 29.1315306341
49285 22 19.6029024191 87.0386170182 30.4934714669
49286 22 19.6918588568 89.172168423 31.5927522819
49287 22 15.7606578005 88.9873335957 28.3223170253
49288 22 17.7956181588 87.7978803245 27.7061697544
49289 23 17.6428675146 88.6982017884 30.0599140658
49290 24 18.3209381943 87.6625281002 25.8432292581
49291 20 17.6911340991 13.7308421363 48.2851331533
49292 20 19.1684096191 14.6120814622 50.3698567344
49293 21 16.4215171401 14.5414588435 48.1896289232
49294 21 19.5819494832 13.1936425345 50.8118327258
49295 22 17.3224933833 12.6187463561 49.0619819594
49296 22 17.987562018 13.4212250926 46.9150543499
49297 22 20.3023937342 15.3542269682 50.6081963801
49298 22 18.0690352642 14.9622948192 51.2368779967
49299 23 18.8622535514 14.6243351881 48.8526396803
49300 24 17.8729756498 10.8863407796 49.6398714144
49301 20 63.3617059241 24.3381723901 66.2344095584
49302 20 65.1534625623 22.3714026133 65.3203377303
49303 21 64.2543571169 25.1858308946 67.0686918584
49304 21 64.2371457767 21.7686315469 64.2320946225
49305 22 62.1314692598 24.3449072623 66.9153799748
49306 22 63.2721882472 25.0243810404 64.9979992612
49307 22 65.9820389288 23.3461818316 64.6538659972
49308 22 65.8834478823 21.2611776309 65.8542634359
49309 23 64.1147955975 22.9708997834 66.2622844463
49310 24 66.938671408 24.3734369295 63.3704051341
49311 20 70.4756018179 91.7039191496 77.087749729
49312 20 71.5578583725 89.2044396859 78.0062179321
49313 21 69.5390804156 91.4923319131 75.8767822825
49314 21 71.940623612 89.1080000569 79.4884510665
49315 22 71.7092994582 92.0849071312 76.5007869045
49316 22 69.89153873 92.6893619157 77.899395375
49317 22 71.0040086698 87.9422123784 77.6655456441
49318 22 72.7944557495 89.5756059788 77.4100881981
49319 23 70.5025413069 90.3800490531 77.8755427025
49320 24 69.4870722354 3.3234247793 80.1639961691
49321 20 88.4133728162 3.5217916487 21.0676435936
49322 20 85.8113736304 3.8733800421 20.3678716588
49323 21 88.7803298139 5.0974468151 21.1734372118
49324 21 85.8754484567 5.4238916855 20.3308298615
49325 22 88.7975411541 96.7083033909 19.7410608401
49326 22 89.133068748 96.3860584617 22.1463456323
49327 22 86.0996635787 3.4909131948 19.0194005706
49328 22 84.4810492813 3.676155856 20.833513243
49329 23 86.9213179932 3.470455085 21.3901691424
49330 24 81.3926426552 26.168373924 38.6691386788
49331 20 18.4349633231 51.5174976737 19.7899822038
49332 20 17.9030954952 50.3089622644 17.3483103936
49333 21 19.1657905021 52.8547439749 19.5019728753
49334 21 16.9839725128 49.0383163666 17.6423998151
49335 22 19.5425691885 50.6119379758 20.1059599602
49336 22 17.6817801098 51.8581699617 20.892630455
49337 22 17.5049897133 50.7001460943 15.9869308002
49338 22 19.2038612383 49.732288828 17.4039666295
49339 23 17.5823472042 51.3205962003 18.4760273359
49340 24 18.1399385026 63.8674761221 42.1142129145
49341 20 81.7846683441 46.4853320844 34.1173939767
49342 20 80.865358282 45.3289919351 31.6437315233
49343 21 80.8429087078 45.7991234341 35.2401533047
49344 21 80.7194360499 43.7810002564 31.389303016
49345 22 81.1567350467 47.7062147595 33.7717640744
49346 22 83.0957234754 46.6906521482 34.7109981336
49347 22 79.5439202226 45.8053906069 31.9629831759
49348 22 81.3291290683 45.8667527763 30.4005863538
49349 23 81.8834464704 45.4579834467 32.9113841445
49350 24 77.5070890665 47.3423445782 28.43119746
49351 20 56.6639690115 60.1183036965 26.0563131329
49352 20 56.0553984718 60.2493530856 28.8571781299
49353 21 57.6486634584 58.9591573503 25.5217326481
49354 21 55.9838404541 61.7134394809 29.3299287458
49355 22 57.0509435462 61.2799756197 25.2726359147
49356 22 55.3606776912 59.5658570922 25.8110515352
49357 22 54.6702597457 59.9571344619 28.654570723
49358 22 56.7102712582 59.5319021112 29.8967804935
49359 23 57.0085699749 60.3407415605 27.5836324954
49360 24 48.9087636157 62.0586952236 23.5407448077
49361 20 50.8744109138 4.8773100324 8.3662825395
49362 20 53.079707416 96.6426383865 8.7244842033
49363 21 50.9878748032 5.4848235713 6.9960260103
49364 21 53.9994851776 3.3206155893 7.4738184265
49365 22 50.4085822498 5.9008796586 9.1949898619
49366 22 49.9881204337 3.7600237235 8.0906017688
49367 22 54.0528964562 96.3637024274 9.6907325834
49368 22 52.249821491 95.5911564564 8.2828730175
49369 23 52.3375619101 4.5531101195 8.7854254432
49370 24 52.8360359964 89.239142986 8.1523006818
49371 20 9.2224999443 30.7227377431 82.5183017199
49372 20 8.9819059871 30.3424045407 85.3065388314
49373 21 10.7942133396 30.9055146928 82.3998802162
49374 21 9.8796083341 30.9131849639 86.3895437051
49375 22 8.645695552 31.5192299265 81.4489536704
49376 22 8.9796049058 29.3241292725 82.3701345304
49377 22 7.7144310916 30.2653276694 85.9963955375
49378 22 9.6442432569 29.0833575896 85.1588393413
49379 23 9.0800293342 31.2109224413 83.9750920035
49380 24 7.0416360619 30.9897005959 87.7382018731
49381 20 17.0037094301 31.3624570669 48.3270390251
49382 20 16.9752733028 31.0844565068 51.1712129922
49383 21 17.4120110603 32.6877302619 47.5516868574
49384 21 17.1746068135 29.5902502663 51.2806546663
49385 22 15.5738586355 31.4517876641 48.384472519
49386 22 17.4795468625 30.3450236577 47.4775097227
49387 22 17.5751446325 31.5591714606 52.3578600667
49388 22 15.56992996 31.2562892891 51.1256590646
49389 23 17.6071352757 31.4734889192 49.7858871864
49390 24 9.9465548351 29.8951903154 43.8614445639
49391 20 20.8894500986 10.9750540135 45.3696817883
49392 20 20.6115430784 10.4226822412 48.2453786991
49393 21 20.0611543518 9.9417655926 44.5163173503
49394 21 21.4488186549 11.5917905858 48.8627419887
49395 22 22.1304438506 11.1035871796 44.5918040434
49396 22 20.0943610136 12.1263149467 45.4949317041
49397 22 19.3218150426 10.9645401296 48.3934523487
49398 22 20.8732676973 9.2456510676 49.1059457088
49399 23 21.2162784825 10.2079333563 46.78465974
49400 24 20.395559467 7.6059809404 49.80880446
49401 20 19.0124786185 84.8169510347 26.8253981279
49402 20 16.4979392321 83.7506898017 25.9644569586
49403 21 20.3270882658 84.1309294642 26.3009199514
49404 21 15.34403112 83.5755831232 26.9631823894
49405 22 19.3801839354 85.2489182577 28.1535710595
49406 22 18.9243640399 85.9684271097 25.935459592
49407 22 16.2412657675 85.040043678 25.426228418
49408 22 16.330315745 82.5744256553 25.1833053175
49409 23 17.8345307541 83.7377812966 26.8545825743
49410 24 19.5314379414 85.3147703419 30.0384934305
49411 20 20.9183539254 36.2501035225 20.6715956893
49412 20 23.3370149221 34.6198902785 20.5812361533
49413 21 21.1180615956 37.6651750141 20.2132502168
49414 21 24.653682447 35.327706644 20.1144720904
49415 22 20.9149864892 36.3133364898 22.1011658643
49416 22 19.659494054 35.92205912 20.0871584419
49417 22 23.4776989202 34.608104252 21.9926595891
49418 22 23.4414989819 33.3465317238 19.9693917174
49419 23 22.094430992 35.3756926087 19.9770619886
49420 24 23.2733142554 31.590975024 20.4027620387
49421 20 19.8478833972 8.4481580073 53.0456588952
49422 20 18.4143845468 10.8314328628 52.7692485133
49423 21 20.8893565587 9.2962280874 53.9058517454
49424 21 17.287135304 11.2645225644 53.8424316983
49425 22 20.3916307915 8.4101153331 51.7498507664
49426 22 19.7482634118 7.1667176059 53.672376174
49427 22 19.5765241695 11.5723155802 53.1073952242
49428 22 17.8427622646 11.0964781478 51.486816589
49429 23 18.5476788934 9.2450243503 53.0235834806
49430 24 17.0929464874 16.5212306653 51.5555684099
49431 20 4.9644798581 7.2871689253 70.5643711758
49432 20 3.512497525 6.2437033641 68.3345672217
49433 21 6.3349608831 6.4901435645 70.4376246216
49434 21 4.3175111926 4.9779121867 67.8537721749
49435 22 4.7796543848 7.3747503265 72.0280834114
49436 22 5.202660486 8.5439522111 69.9173557403
49437 22 95.674126341 5.9148545185 68.1112874986
49438 22 3.9241553665 7.3768362661 67.5941054338
49439 23 3.8254043667 6.346288564 69.8921935093
49440 24 96.0698936255 11.2563845938 64.4899841058
49441 20 50.3766851465 32.1651228833 78.4887902368
49442 20 47.6913419166 32.1968329068 79.1024119307
49443 21 51.5601518647 31.7115479452 79.2862178192
49444 21 47.2462791088 30.6963594934 79.3527246826
49445 22 50.811645646 33.4605568526 77.9592609062
49446 22 50.2649049751 31.2054035877 77.4317894531
49447 22 46.8640751086 32.8897764294 79.9851478949
49448 22 47.3187725254 32.4967218017 77.7154959467
49449 23 49.1760070882 32.2671749058 79.4949988589
49450 24 50.6760128021 30.8280636619 75.5695037361
49451 20 74.0011203609 56.8562870302 45.170067658
49452 20 72.1131111736 55.4631974133 46.681204619
49453 21 73.9448093457 56.3684764915 43.7452680175
49454 21 71.9498840614 54.1687923828 45.791359623
49455 22 75.0112576585 56.0899146921 45.827840181
49456 22 74.3775248878 58.2344102643 45.0814853799
49457 22 73.0443943419 55.2238288287 47.73184469
49458 22 70.8027108215 55.5698328906 47.1885649952
49459 23 72.5621026569 56.6099029537 45.7225142623
49460 24 75.2727016577 49.6408068133 42.2445139845
49461 20 56.3908325258 73.3767415794 7.9036248779
49462 20 57.2282951821 73.5215413328 10.5698111378
49463 21 55.9026478276 71.8452129218 7.7769344477
49464 21 57.0912592398 75.0333330731 10.6241952313
49465 22 56.9392569147 73.7367766251 6.6153934804
49466 22 55.2299089217 74.1085041574 8.2505830467
49467 22 56.0217241105 73.0400915068 11.1570078121
49468 22 58.3478741538 73.2600973337 11.3793989062
49469 23 57.5113468964 73.3281943753 9.0399849063
49470 24 55.7694470209 67.9853828035 13.1304095673
49471 20 8.0277803771 29.4922204591 48.6268343801
49472 20 7.9656511806 30.9906359948 46.1814209742
49473 21 6.887725523 28.5065906133 49.0186729892
49474 21 6.4911163794 31.2633983209 45.7565627831
49475 22 7.7484702585 30.6092738537 49.4251038215
49476 22 9.2503654782 28.8562427309 48.9781702158
49477 22 8.305032618 32.1691450986 46.9149608101
49478 22 8.5866625259 30.778393979 44.9304184537
49479 23 7.9005380615 29.7044624749 47.0655600368
49480 24 9.5376077796 33.7495015801 45.740941621
49481 20 77.7516023451 64.1145149779 93.5602183135
49482 20 75.1021784339 64.7924921177 93.7627321805
49483 21 78.5498717865 65.2770287601 94.4272395758
49484 21 74.3188753753 63.577315376 93.2303966531
49485 22 78.6421021204 63.6952691803 92.4795519371
49486 22 77.5461887415 63.0604139308 94.5422936434
49487 22 75.2045110762 64.4639800157 95.1559153373
49488 22 74.2529297512 65.9388234985 93.5019429606
49489 23 76.5080830161 64.8438455186 93.0298471238
49490 24 39.2206498842 39.166116127 75.4855049128
49491 20 54.7870910713 62.2838457445 13.1693221625
49492 20 56.0695229955 64.6881951377 13.7470245377
49493 21 55.9668161937 61.5193442042 13.6472174726
49494 21 57.5131241543 64.5996128596 13.1160044238
49495 22 54.3948783026 61.5871606262 12.0120933842
49496 22 53.8501019695 62.2114458678 14.2276325047
49497 22 55.6890962533 66.0506036699 13.56256387
49498 22 56.3262900001 64.341162137 15.0836160596
49499 23 55.2788302854 63.7342753154 12.8259372176
49500 24 52.3629112209 62.7124455313 15.2530168047
49501 20 21.9639428422 7.7064334309 20.8314553654
49502 20 22.5366876031 10.1428015292 19.7809088343
49503 21 20.9606339567 6.965943581 19.8509702137
49504 21 23.8860940903 10.2971236436 20.5048140613
49505 22 21.555641212 7.2159008813 22.1000433856
49506 22 23.2269184688 7.1874179841 20.447661187
49507 22 22.9166466459 9.5378509834 18.5586230608
49508 22 21.9746999298 11.4764091286 19.6336770437
49509 23 21.7217680609 9.1846724118 20.6956354417
49510 24 17.1363489975 14.0025755236 9.7839450862
49511 20 23.0862344707 62.2315569446 47.3561884823
49512 20 24.7703266928 63.1780871154 49.3254838362
49513 21 21.5951150466 61.890604037 47.6967672304
49514 21 26.111875829 62.5813961421 48.8965098898
49515 22 23.4895784866 61.1504228688 46.5043206826
49516 22 23.0517182504 63.5688032458 46.7373285545
49517 22 24.7052229277 64.4734275448 48.7354341952
49518 22 24.8198092958 63.1880958839 50.766465878
49519 23 23.752519124 62.1827291208 48.7518036763
49520 24 22.0981725877 63.4699315796 38.3469872896
49521 20 6.4029924468 17.8829844183 74.7136137211
49522 20 4.0206754398 19.1559688134 75.1124678221
49523 21 6.2315244701 16.8168167252 75.9403894094
49524 21 3.7959084324 19.4159161743 73.695151373
49525 22 7.7605275506 18.1415286808 74.5977177944
49526 22 5.8154403209 17.3629026168 73.5487614415
49527 22 96.7662981242 17.9746535128 75.3089951359
49528 22 3.380928054 20.2962201013 75.7258088963
49529 23 5.5596461312 19.10676683 75.1842129195
49530 24 94.2081691479 20.1116658937 79.9656915973
49531 20 95.992161975 16.1543672075 70.8325500471
49532 20 94.8748279608 14.7565070561 73.0834940169
49533 21 94.9807151189 17.3451300372 70.9344149899
49534 21 93.3664971964 14.9131863758 72.8413192356
49535 22 96.2176866555 16.013963829 69.4078439466
49536 22 3.7146718421 16.5646331754 71.3935087816
49537 22 94.9831471561 13.377448423 73.4826287376
49538 22 95.3727408078 15.7678603722 73.9936371696
49539 23 95.3825624965 14.9182375299 71.5178232986
49540 24 9.8514621805 14.216033558 73.8535144108
49541 20 84.9536128175 90.7147347879 11.486483375
49542 20 83.4778339357 91.7039191496 9.326993358
49543 21 84.9547352962 91.5831591486 12.7450252107
49544 21 83.7975532878 90.5351381946 8.3078107528
49545 22 86.1542908758 91.1225687186 10.8507394966
49546 22 84.874103909 89.4253809116 11.9619372939
49547 22 82.1007396404 92.1637612605 9.0720036114
49548 22 84.3556122856 92.8205048447 9.1290910077
49549 23 83.5622069186 91.0547522967 10.7262566078
49550 24 86.1786112478 88.135465796 11.8918759145
49551 20 11.7549428661 32.4655730175 50.0572464141
49552 20 12.318988417 32.7699518273 47.2746216962
49553 21 11.6868551784 33.9610888166 50.5369189821
49554 21 12.9292052588 34.1733308324 46.8960657518
49555 22 12.4878092147 31.8043395184 51.1116280808
49556 22 10.3907103059 32.0658770575 49.7733528408
49557 22 13.2135665316 31.8394169781 46.6257354629
49558 22 10.8993521786 32.7958623775 46.8865246828
49559 23 12.6369866351 32.6386218184 48.8342123215
49560 24 13.0455688849 30.0760029273 43.024449607
49561 20 27.1783241418 87.092683076 50.6486991535
49562 20 29.1920509445 86.599914923 52.556632338
49563 21 25.7203178396 87.2589034647 51.195720444
49564 21 28.5591600328 86.3032063845 53.9880733107
49565 22 27.2166754976 85.7597396098 50.1240338973
49566 22 27.3190081399 88.1118002032 49.6842093234
49567 22 29.4364706832 85.3344137193 52.014381582
49568 22 30.434260715 87.3279359053 52.8684943391
49569 23 28.0945473874 87.4712390204 51.84226818
49570 24 33.1313899714 87.6424170234 49.6779421506
49571 20 66.1203844296 90.651221201 78.884931681
49572 20 67.1297734081 88.3735248221 79.9651303579
49573 21 65.6892590657 90.4958514398 77.4029791663
49574 21 67.2684930684 88.8603999618 81.4596172182
49575 22 67.4770870284 91.0695315997 78.7904563897
49576 22 65.1588878761 91.5346119445 79.4564604233
49577 22 66.7693642028 87.0096196516 80.0463229845
49578 22 68.4032255027 88.6070939333 79.4302692534
49579 23 65.9808229102 89.3196808333 79.5066913455
49580 24 59.6890491304 6.4246095159 85.8726422599
49581 20 90.9024693519 45.0867236139 25.7863570036
49582 20 92.0094204381 43.8665892579 23.5006161939
49583 21 91.4523903791 46.4971181109 25.970256432
49584 21 93.253033307 44.8327628061 23.2503969818
49585 22 91.6676256714 44.1869633893 26.5508585438
49586 22 89.5323905485 45.1792345674 26.1722090596
49587 22 92.4560734241 42.7616960494 24.2622179975
49588 22 91.4852228813 43.4805501222 22.2357697694
49589 23 91.0596163711 44.853715742 24.2861642099
49590 24 87.8289355687 44.394060711 26.7399026663
49591 20 77.2510703811 64.5530299932 78.3442711031
49592 20 74.4101703102 64.4526616887 78.7647329193
49593 21 77.5572264488 64.370720743 76.8174194401
49594 21 73.7945842786 64.0079730405 77.4805237371
49595 22 78.4081588496 63.9554971608 78.9458261509
49596 22 77.3306728295 65.9632374105 78.5235870768
49597 22 73.6981446496 63.6697327897 79.7170625634
49598 22 74.2717312695 65.8406066116 79.0001728283
49599 23 75.9013832742 63.8188353781 78.645937256
49600 24 75.4711933093 70.1776772607 73.7856979888
49601 20 86.9272110064 92.4982599156 34.8058475845
49602 20 87.6828262569 90.7689879255 36.83454077
49603 21 86.212379149 93.6752723811 35.4579141741
49604 21 87.5040715226 91.7614461834 38.0357800677
49605 22 86.3202306449 92.3263335934 33.4977857297
49606 22 88.3310577109 92.8829894928 34.7711442844
49607 22 87.1390788626 89.5832762499 37.4088757091
49608 22 89.0716130387 90.8258601801 36.4779667003
49609 23 86.7208620038 91.3289177212 35.7451751836
49610 24 67.5887736599 31.9714953061 13.5131748068
49611 20 64.0421151012 29.1076779616 8.0732501187
49612 20 63.5409283579 31.6892854508 7.3535541869
49613 21 63.0987652867 28.0971665044 8.901152998
49614 21 63.722489289 31.8540092013 5.8614993639
49615 22 65.0673123214 29.4227203191 9.0229699999
49616 22 64.4160875908 28.2934131986 6.9635957297
49617 22 62.6522058406 32.7474087132 7.6945912805
49618 22 64.8731235049 31.8607440735 7.8361171376
49619 23 63.0448863087 30.2821648501 7.6132115741
49620 24 19.2660652667 19.951432058 45.3192637863
49621 20 44.6544757713 34.2871688814 83.2256503859
49622 20 41.8984163828 34.7103433544 82.8382081518
49623 21 45.25518896 32.8595630442 83.4224583194
49624 21 41.664473112 33.6311736162 81.7323795443
49625 22 45.4336630746 35.0477417461 84.130181145
49626 22 44.8226604977 34.4765871634 81.8160042081
49627 22 40.6971770851 34.8260522012 83.6419029069
49628 22 42.2890389733 35.9810827921 82.1848320036
49629 23 43.1706524588 34.1265608862 83.6886728531
49630 24 51.4142296326 34.9112670432 77.0508950115
49631 20 52.4458811054 74.2931519049 71.7257624793
49632 20 51.2238759516 71.8369814113 71.1019449371
49633 21 53.9173571521 73.8556658283 71.4698373338
49634 21 49.6629757678 71.765142774 71.3795713377
49635 22 52.4564511132 75.138565452 72.873964658
49636 22 51.9957671434 74.904809261 70.5357479687
49637 22 51.4139490129 72.1984195554 69.7327079928
49638 22 51.7233789768 70.5463179765 71.4605768845
49639 23 51.7906341594 72.9405650614 72.1261132186
49640 24 51.1620460828 72.1467855348 67.9303813468
49641 20 59.9930537806 32.7035385037 18.953829106
49642 20 61.7528197755 34.7164234474 19.7605171377
49643 21 59.8734162583 32.0691509537 20.204363927
49644 21 62.0342813117 35.7823105208 18.677512264
49645 22 59.9695752676 31.5984582154 18.058745876
49646 22 58.7596367599 33.4866544825 18.839149198
49647 22 60.702647404 35.3058183092 20.5140745106
49648 22 63.0126150459 34.589022114 20.4332560436
49649 23 61.3485403608 33.4561604776 18.9467200742
49650 24 59.5056174015 36.5095831839 21.0625924394
49651 20 88.6110226088 61.5925859399 46.831616766
49652 20 88.4475148769 59.1551234248 45.2912018186
49653 21 90.0352610098 62.0979819784 46.5570771819
49654 21 89.9828786701 58.9251088295 45.0435081836
49655 22 88.5389033517 60.9167602176 48.1249928576
49656 22 87.8072343137 62.7570640599 46.7416313895
49657 22 88.2218031166 58.274632418 46.4307983272
49658 22 87.7582194101 58.8095870624 44.0787377338
49659 23 88.273624217 60.7135915714 45.6423505745
49660 24 88.3931681995 59.3258337284 49.3177200251
49661 20 39.7703838316 25.3151030259 7.3722153954
49662 20 42.1635084377 25.6647551435 8.7871091613
49663 21 38.797662491 24.4349861786 8.1370069094
49664 21 42.7075364517 27.0238897795 8.1423106213
49665 22 39.6267065569 25.0367283062 6.0060933295
49666 22 39.362456361 26.6062341601 7.7292852266
49667 22 41.4756160693 26.054535875 9.9616708817
49668 22 43.3885068681 24.8833228827 8.9997159826
49669 23 41.3122018774 24.9691925039 7.7244024442
49670 24 46.8991525682 36.8390306848 67.7273997804
49671 20 51.4180647682 78.5168522045 75.1460486434