ITEM: TIMESTEP
18000000
ITEM: NUMBER OF ATOMS
4000
ITEM: BOX BOUNDS pp pp pp
3.23005382 96.76994618
3.23005382 96.76994618
3.23005382 96.76994618
ITEM: ATOMS id type x y z
49081 20 26.2016741257 41.4624269445 27.3888824395
49082 20 25.2682395398 38.8124417939 27.1211712675
49083 21 27.0266024364 41.3940492832 26.1126241481
49084 21 25.0947230395 38.5833625976 25.6133082027
49085 22 27.1496073948 41.1351308611 28.4026677929
49086 22 25.6840243613 42.7630056079 27.3829894263
49087 22 26.5621768708 38.3880513023 27.3220949563
49088 22 24.3061817469 37.9765693158 27.7685608626
49089 23 25.0865850688 40.3696003821 27.1967515006
49090 24 21.3174886461 33.0554355788 28.6903029619
49091 20 54.7276932396 56.2071201772 55.7151938833
49092 20 55.4427121768 57.6814959606 57.9657636935
49093 21 53.1757728855 56.0985203622 55.4961234554
49094 21 54.1565386569 58.5146557818 58.1997069643
49095 22 55.1487162952 54.9164567424 55.2977253437
49096 22 55.1190641493 57.235310674 54.8332062382
49097 22 55.9521304306 57.5139660134 59.3172280583
49098 22 56.2487454293 58.5364505768 57.14317388
49099 23 54.861174666 56.4371347725 57.2450388228
49100 24 56.4383507911 58.4329019159 55.2320603392
49101 20 9.1581912683 18.8329755651 82.6203537425
49102 20 11.2944833919 18.4799560113 84.4322214575
49103 21 9.5725729914 17.9485558828 81.4320229499
49104 21 12.8029264041 18.6695613731 84.0821951803
49105 22 8.4766409045 19.9533963958 81.9832535356
49106 22 8.3504836517 17.9427564095 83.4422887766
49107 22 11.241446273 19.1662582016 85.7034285946
49108 22 11.2113077197 17.0693744345 84.5279127674
49109 23 10.5259222204 19.221540278 83.2799970634
49110 24 13.4184188958 25.5159331748 80.7716313099
49111 20 84.4511165157 94.8882977053 21.9290524623
49112 20 84.7342617699 96.4846495083 24.2117064556
49113 21 82.9308126452 94.5668946351 21.7898651025
49114 21 83.4201198221 95.851384437 24.7769680251
49115 22 85.0593128959 93.8774120885 22.6899059468
49116 22 84.8705493931 94.9496598746 20.5876904059
49117 22 85.8255916941 95.7816036773 24.8126067241
49118 22 84.6654164091 4.3183156357 24.4632352261
49119 23 84.5331510013 96.2030008924 22.7037498508
49120 24 85.9601020593 93.2839950114 24.20787132
49121 20 58.9401687522 59.0536326416 60.4022908097
49122 20 61.2498557743 59.6689380536 61.872363758
49123 21 58.9063073111 57.5661612733 60.6166842429
49124 21 61.3433021268 60.7995547325 62.9920362695
49125 22 59.5977541955 59.1817822941 59.165412813
49126 22 57.5944103208 59.4218056579 60.3323229702
49127 22 61.7865876767 58.5307446433 62.4633487979
49128 22 62.0380229074 60.2840563857 60.7976839347
49129 23 59.6951292234 59.5996249933 61.6852839733
49130 24 62.9396539298 61.2418113436 59.4999114681
49131 20 86.0918062277 50.3392691896 31.4454269515
49132 20 87.0164480637 49.0587080632 29.1929863434
49133 21 86.818891811 51.7567727184 31.4500104062
49134 21 86.9515313784 47.6918096161 29.7432815302
49135 22 86.8882048713 49.5569950698 32.2914952779
49136 22 84.8064745668 50.6007131887 31.9951608989
49137 22 86.7734314233 49.0749840044 27.7477950065
49138 22 88.3737119018 49.447272776 29.5507764317
49139 23 85.9975180162 49.9140368389 29.9373768068
49140 24 79.6803949256 49.9545396123 34.1877359758
49141 20 13.4158933188 59.972662084 71.9216350139
49142 20 14.436787704 62.2264122506 70.81271959
49143 21 11.9440431125 60.2980873696 72.3715618961
49144 21 13.1756828752 63.0591979122 70.5088084797
49145 22 13.91015811 59.0490491869 72.9032426443
49146 22 13.2056156407 59.3773742091 70.6168470554
49147 22 15.4540340334 63.1985723519 71.0901589107
49148 22 14.7554781172 61.4762223138 69.6017521435
49149 23 14.1382083676 61.3154272389 71.9733625744
49150 24 15.781143037 60.1209228134 69.1631435882
49151 20 34.4930501844 46.6707281511 62.3365087039
49152 20 33.2470052783 46.6260160826 59.8039161182
49153 21 35.8148624034 47.2571297363 61.6232670246
49154 21 32.0708346718 45.6052152372 59.6945679841
49155 22 34.74888179 45.2820349091 62.4578299443
49156 22 34.4793933602 47.5213799322 63.4828400847
49157 22 32.8639594191 47.6404562152 58.9171579387
49158 22 34.4015681697 45.9332596397 59.3649334034
49159 23 33.3249240086 47.0430169227 61.330113002
49160 24 35.5468706118 43.4780245451 62.0472833567
49161 20 15.3748057446 67.4165667181 45.7462733949
49162 20 13.5861359228 68.4720708634 47.6498102044
49163 21 15.4561854509 65.8469673243 45.8181120322
49164 21 12.7985300292 67.3538949902 48.3600586071
49165 22 16.5121572958 67.9405771951 46.4243440746
49166 22 15.3823824758 67.6393787417 44.30800401
49167 22 14.7500528035 68.8542748636 48.466226385
49168 22 12.6700062171 69.5337486417 47.6376500184
49169 23 13.9321399847 67.8611618264 46.291049728
49170 24 80.079810266 40.8727514631 28.0145707795
49171 20 66.620635774 95.8546583332 35.9092441548
49172 20 65.4625183667 96.6810832822 38.3320209068
49173 21 67.9877213008 96.4737053409 35.7951254861
49174 21 66.7587006551 3.6295823436 39.0692087985
49175 22 66.0950351188 96.0049769402 34.5666660797
49176 22 66.820436984 94.4726064236 36.3655317497
49177 22 64.3887739423 3.9832894156 38.6550141551
49178 22 65.1781570939 95.303053588 38.7534181219
49179 23 65.8493058216 3.3217058902 36.8138684538
49180 24 64.5721121313 95.6386747218 33.4946989133
49181 20 95.7935767835 14.8146888691 81.1696435518
49182 20 3.7995284263 15.1028852775 78.7595882252
49183 21 94.845082275 15.9824408853 81.4975944145
49184 21 3.6584309818 16.6301111 78.3184540928
49185 22 3.4412996359 15.1150454635 81.8818562923
49186 22 95.0840767 13.646843313 81.5699942911
49187 22 5.0144488686 15.0239376083 79.4909766436
49188 22 3.7238462348 14.3561563168 77.5272936832
49189 23 96.0198497831 14.9187987693 79.6114560249
49190 24 96.4184232645 17.9064629313 87.5830191917
49191 20 94.4107765548 5.5869691338 29.6741555497
49192 20 96.4876427848 6.906835723 28.447754021
49193 21 93.1915775977 6.4971029325 29.192518644
49194 21 4.1733475105 5.9447405141 28.4134248805
49195 22 94.1278183804 5.1320191593 31.0140209679
49196 22 94.3719574994 4.4930855706 28.7358568895
49197 22 95.9308933455 6.6201359529 27.2033928329
49198 22 3.537636371 8.2289753315 28.548590025
49199 23 95.6505542881 6.4763744923 29.7027787568
49200 24 89.2279181989 5.3486107801 33.7753185904
49201 20 43.8507810161 65.4410041914 73.1387760933
49202 20 43.9603162301 66.9662656762 75.6125320866
49203 21 43.4855077365 63.9248160761 73.3742160024
49204 21 44.9001115286 68.2088496063 75.6653821258
49205 22 44.8222863382 65.1820857694 72.1118016151
49206 22 42.658615088 66.0829684727 72.7856629996
49207 22 42.6505706573 67.4511764782 75.3686735873
49208 22 44.1669458523 66.3617173519 76.9120818112
49209 23 44.4832977683 66.0232900214 74.4035289779
49210 24 43.489342872 65.017268479 77.9033240505
49211 20 36.8199485468 67.9909016571 74.8556072777
49212 20 39.3935116053 68.9720415881 74.5628274146
49213 21 35.7813751219 69.0218048108 74.503336043
49214 21 39.3123189787 70.5355608889 74.6569285463
49215 22 37.0292908259 68.1315856553 76.2533738892
49216 22 36.2735820355 66.8089315773 74.3758411697
49217 22 39.7712256906 68.6081714068 75.9045636306
49218 22 40.4658529313 68.8117142126 73.6460429295
49219 23 37.9905067598 68.5283818786 73.9936371696
49220 24 37.5586330768 67.0761750498 77.757775978
49221 20 82.4244812079 52.8584855706 7.8939622071
49222 20 79.8576530216 53.3629462101 8.8666835477
49223 21 82.3062467839 51.4343407094 7.2928187348
49224 21 79.0974543164 52.0097045873 8.7715721852
49225 22 83.7781905301 52.9324756255 8.3055096715
49226 22 82.0923210501 53.6712536953 6.744300806
49227 22 79.2454344261 53.9495348751 9.9948681895
49228 22 79.619219836 54.1314699657 7.6960317948
49229 23 81.3350220815 52.9332239446 9.0725554968
49230 24 80.4659429416 55.7006016601 6.9185188555
49231 20 91.7351614737 91.3158221362 21.3612653157
49232 20 93.6321504907 91.1279004925 23.6274562879
49233 21 90.7815222711 90.1479765801 21.6213062165
49234 21 93.5040008382 89.7342496362 24.1975819318
49235 22 91.8841705222 91.3293854206 19.9705141961
49236 22 91.1122793305 92.4775875994 21.9532792944
49237 22 95.0328168389 91.4212415949 23.7122034304
49238 22 92.775979856 91.9105487719 24.4879297577
49239 23 93.1622996114 91.0484851239 22.0961147101
49240 24 47.8962878208 60.3600107783 16.6028909913
49241 20 68.9838276145 90.473963105 35.5597791169
49242 20 67.4816704831 91.7797800023 33.6242516642
49243 21 70.4469786108 90.6401834937 35.1461457129
49244 21 68.6320240794 92.8536179666 33.6712086902
49245 22 68.8290190927 89.1512154871 36.0306589351
49246 22 68.6442778053 91.5481752289 36.4272680787
49247 22 67.1207000385 91.8195344566 32.2476250683
49248 22 66.5212028684 92.3406451969 34.4286011986
49249 23 68.2119364228 90.5598327262 34.1608900267
49250 24 64.8162512503 92.5429719841 33.9515477476
49251 20 44.9005792281 59.1559652839 64.7376777408
49252 20 46.9746392614 58.8552345299 66.6645059835
49253 21 43.7690271502 58.519706936 65.5924452771
49254 21 46.1999418729 58.3403909624 67.9194371794
49255 22 44.5648645544 58.9344628187 63.3359824537
49256 22 44.805074998 60.5484936614 65.0037987345
49257 22 48.2161942527 58.271171442 66.7699254422
49258 22 46.9739844821 60.2454244102 66.7252133736
49259 23 46.2053671866 58.4298150995 65.3057455071
49260 24 43.5151598823 61.7818171422 64.3138484885
49261 20 32.5328282001 85.0052468381 48.8901491771
49262 20 32.1969264467 87.6659890762 48.0028297582
49263 21 31.4216678188 83.8185997636 48.6951185016
49264 21 30.7056199428 88.1461293437 47.976919208
49265 22 32.3476192133 85.5219612035 50.2114001567
49266 22 33.781679303 84.3919993038 48.6368431486
49267 22 32.668554584 88.2044982366 49.3050921396
49268 22 32.7621880162 88.3156236287 46.8180534816
49269 23 32.1114309851 86.0692631137 47.8512951326
49270 24 29.5490927136 88.8981900783 59.0648574287
49271 20 11.6773141094 27.7587391739 87.4754483155
49272 20 9.0172827744 27.4104901546 88.3186169052
49273 21 12.2258413922 26.6434630373 88.3364830247
49274 21 8.9465385538 27.0188386253 89.8278830685
49275 22 12.6874046371 28.7769209022 87.5392425221
49276 22 11.5692381178 27.1225743659 86.1886200163
49277 22 7.8784720009 28.2571197204 88.224141614
49278 22 8.935098625 26.1914782774 87.569736527
49279 23 10.3501607626 28.1709694795 88.2316248053
49280 24 11.7270399162 26.6326124098 84.465615199
49281 20 22.9409670179 85.7745189128 18.9309118324
49282 20 23.9616743233 88.2506134035 17.8353726131
49283 21 23.4345770299 85.6923908873 20.3844282198
49284 21 23.7397041587 89.0071640529 19.2325779853
49285 22 23.0200082269 84.3859192108 18.4666733466
49286 22 21.5740685708 86.2619552919 19.0253871237
49287 22 25.2113672852 88.7337469475 17.383574933
49288 22 22.8564069552 88.7757463592 17.0635749612
49289 23 23.9305255391 86.6804527703 18.1306780533
49290 24 21.1435044463 89.2116422576 16.8146653077
49291 20 21.2848432236 11.8137233344 50.4790177888
49292 20 22.5831769296 10.8744612133 52.7800056009
49293 21 20.6787047211 13.0273286059 51.240900212
49294 21 22.9593943767 9.4155849901 52.5237062959
49295 22 20.2816278781 10.7641028483 50.4819175254
49296 22 21.5605988263 12.4463149185 49.2487811244
49297 22 23.6712329575 11.3877052487 53.5919318666
49298 22 21.3430250367 10.7992644938 53.4389006027
49299 23 22.5857025067 11.5659922835 51.3497806467
49300 24 20.3631946642 9.028891075 49.761005575
49301 20 65.4965668875 30.0331616566 68.3727314978
49302 20 67.5666982453 31.8651404485 68.5566309261
49303 21 64.2713813773 30.7863448699 68.723599634
49304 21 68.6390395713 31.1820186146 67.7445175807
49305 22 65.3908668091 28.7640123971 69.0411675686
49306 22 65.5411854161 29.9687126708 66.943909642
49307 22 66.7710479209 32.7334712693 67.669498587
49308 22 68.185651713 32.4492035364 69.7013721288
49309 23 66.6766661695 30.7400426232 69.0812026425
49310 24 65.0163330801 33.6246258238 67.0941347091
49311 20 67.8489081005 89.4800082088 84.9671761019
49312 20 68.4642135125 86.6900873793 85.2102862821
49313 21 67.5402264558 89.2562607863 83.4643641912
49314 21 69.3711763088 86.4127415984 86.3449251764
49315 22 69.1269436499 90.0674387328 85.0885908822
49316 22 66.7301709879 90.2372136374 85.4143903272
49317 22 67.5028104988 85.6103564017 85.1965359179
49318 22 69.2991505917 86.7582779608 84.0595585263
49319 23 67.7385310276 88.0133026966 85.6427212045
49320 24 66.6137138219 95.2323374294 88.1593184686
49321 20 84.8580150475 4.6790148146 19.3614759569
49322 20 84.5660770434 6.4864019688 21.5901574323
49323 21 85.3523733786 5.4601477477 18.0516368442
49324 21 84.8516543348 8.0281451826 21.2082340518
49325 22 84.0159689365 3.659155916 18.8884447213
49326 22 85.9762844607 4.2060022869 20.0959511917
49327 22 83.4783016352 6.5267924943 22.5682105468
49328 22 85.7625458066 5.9142932791 22.0751617742
49329 23 84.1378514162 5.7938138978 20.2054864057
49330 24 82.5157761428 30.1983531065 35.5293786519
49331 20 95.8742081707 35.0202410178 4.7416397726
49332 20 94.1063042051 33.0543131 6.0364844405
49333 21 95.8761725085 36.1534768137 5.7743856621
49334 21 94.3614810315 31.5521559686 5.7232941729
49335 22 94.8585520195 35.4378966372 3.7614464653
49336 22 3.6755777795 35.1641053722 4.2966611506
49337 22 93.8171723978 33.1659997315 7.4117640619
49338 22 93.1192712609 33.4519511825 5.1014877385
49339 23 95.4783473463 33.7466018434 5.6417273868
49340 24 20.7286550237 65.6430503589 38.5114304203
49341 20 82.7739462457 50.065197305 37.5226202182
49342 20 82.4655452206 48.818965319 35.1206093223
49343 21 81.719564579 49.2399883746 38.2828189234
49344 21 82.6153025883 47.3111022542 35.0350203208
49345 22 82.1394651558 51.2488511029 37.0730674955
49346 22 83.8049429393 50.2296404357 38.4904774844
49347 22 81.0646917926 49.1468226418 35.1950670766
49348 22 83.1539988284 49.4438118 34.0122551377
49349 23 83.2527769547 49.1226893495 36.4505595119
49350 24 79.660003229 51.9976379412 31.7832930427
49351 20 65.0611386885 63.3787301845 22.5974885331
49352 20 63.5619748337 61.6167192322 24.4204874953
49353 21 66.1469497591 64.2048745139 23.3401952785
49354 21 64.4775433001 61.5105514543 25.7736355782
49355 22 64.4699665688 64.379419953 21.782475451
49356 22 65.6032959047 62.2362339393 21.9450477839
49357 22 62.2678504229 61.5703234456 25.0128756336
49358 22 63.7235182278 60.3651554724 23.7217444994
49359 23 63.9280899724 62.9428342862 23.6318526628
49360 24 54.6434137966 63.4212908356 21.5790261851
49361 20 47.1498394798 8.1661913558 3.547756452
49362 20 49.8845717728 7.9822358035 4.3282963422
49363 21 46.8106638301 6.8574185978 96.4202005224
49364 21 50.2908155253 7.3941317922 96.4998029708
49365 22 47.4002457716 9.0682245998 96.0323841287
49366 22 45.9440167274 8.4140533626 4.2613966112
49367 22 50.3618123036 9.2935434925 4.4934877921
49368 22 50.6533761481 7.1705527415 5.1963652513
49369 23 48.364548522 7.8433571253 4.5708733451
49370 24 48.5959662157 3.4408927374 9.3352529305
49371 20 5.961371907 23.2964186088 81.9918592057
49372 20 7.9092279175 23.9269710232 83.9490879134
49373 21 6.2728878105 24.1269593131 80.7248613637
49374 21 8.8762713867 25.0060472215 83.3226512543
49375 22 4.534439557 23.2411365325 81.9695031714
49376 22 6.5447615076 22.014454384 81.6816809226
49377 22 7.8590624732 24.2906541247 85.3412421314
49378 22 8.4726561051 22.6359334289 83.6489183988
49379 23 6.5474554565 24.1142378877 83.1867377907
49380 24 8.7780919157 24.4071112907 86.9991431836
49381 20 14.4944082777 34.8079054621 48.7403918095
49382 20 16.159137742 34.6515067621 51.0061150822
49383 21 14.1910584067 36.3343829655 48.5105642939
49384 21 16.6094387838 33.2162306537 51.2713942169
49385 22 13.3795998405 34.3729449626 49.4729027065
49386 22 14.4409969991 34.3208432426 47.4107222396
49387 22 17.3642121753 35.3667127791 51.3563284392
49388 22 14.9976528986 34.8490630148 51.8500319911
49389 23 15.8843175382 34.7859235874 49.4266004598
49390 24 6.1796191838 30.1156638417 48.497468709
49391 20 25.2779676886 10.1383116144 48.11423577
49392 20 23.4176463093 8.1855634675 49.1055715492
49393 21 25.1310165177 10.3084139086 46.5657763919
49394 21 23.8009727882 7.6143527608 50.4674188421
49395 22 26.6626387152 10.4198012125 48.3570653306
49396 22 24.3914901287 11.1847423902 48.6395558055
49397 22 22.4943140319 9.1625128113 49.4280970981
49398 22 22.8272225088 7.0289988224 48.4042094363
49399 23 24.7738812087 8.6021153162 48.3589361284
49400 24 21.5032588723 5.8342886092 47.9849636388
49401 20 18.6233526663 88.6912798364 18.4238320759
49402 20 17.1034229554 90.5993065608 19.6550976791
49403 21 17.632110427 87.5325076498 18.5094210774
49404 21 17.9290995852 91.9004464635 19.9443230262
49405 22 19.4332210544 88.571735854 19.6020605601
49406 22 19.4494969956 88.4476084168 17.2933089369
49407 22 15.7354955695 91.01705572 19.320599024
49408 22 17.1877959383 89.8933609931 20.8756061946
49409 23 17.7177929684 89.9567810401 18.4122331293
49410 24 20.3806866241 87.0673337651 20.1901458634
49411 20 22.1614990948 33.1898524041 25.6876724171
49412 20 23.5733902301 35.4824216259 25.0927587017
49413 21 20.9391197815 33.5249122985 24.8246733702
49414 21 22.8604291706 36.0205566267 23.7626214324
49415 22 21.9335423772 33.4895542192 27.0430654574
49416 22 22.3222006299 31.7681395801 25.5000313931
49417 22 22.8628612078 36.1680690369 26.164912948
49418 22 24.9921097775 35.7013049741 24.9831299479
49419 23 23.2596574311 34.0072039835 25.0439308779
49420 24 26.3736939877 34.4719101688 24.5658484881
49421 20 21.0555769475 4.3529066879 50.8893772965
49422 20 20.1136302314 6.908547503 51.9993216593
49423 21 22.388146254 4.1514021164 51.6628586665
49424 21 18.7042646732 7.2013367201 52.2932240011
49425 22 21.323662279 4.9983974231 49.6707395789
49426 22 20.4399909158 96.6349681153 50.742987365
49427 22 20.8110636688 7.4477675665 53.122361607
49428 22 20.3589853691 7.6815237575 50.8287634463
49429 23 20.2096957009 5.3569919544 51.8523704884
49430 24 20.379002906 11.824517838 54.6588478789
49431 20 95.8660702001 3.8424875572 64.2932697122
49432 20 93.847479323 96.2825098009 62.6716621382
49433 21 96.380633148 4.870706116 63.2290663568
49434 21 94.14549742 3.352581725 61.2648221571
49435 22 3.5410664789 3.44679604 64.8992211349
49436 22 95.0239305492 4.605670185 65.1708609823
49437 22 93.45030894 94.9722029887 62.3961871552
49438 22 92.9095548223 3.6246181816 63.1978240327
49439 23 95.2357048655 96.282416261 63.376578767
49440 24 88.3610840164 6.6719851152 65.4234186916
49441 20 47.1504007191 33.9579084602 72.9424358592
49442 20 44.6688809147 32.8624627808 74.0448034907
49443 21 48.4830635656 33.5780429574 73.6309830069
49444 21 45.0033795698 31.3462746656 74.2241194643
49445 22 47.3442153761 35.3014219342 72.6506849349
49446 22 47.2020347397 33.023912635 71.8300594593
49447 22 43.9083080499 33.0614221319 75.2830845857
49448 22 43.9905296153 32.8801418205 72.8519827833
49449 23 46.0932128557 33.6673735546 74.1048561016
49450 24 46.4355688617 33.3701973165 70.0843244482
49451 20 85.1036508048 61.6972570795 44.0642390505
49452 20 83.3639958867 63.0901596166 45.8009942319
49453 21 84.3130516346 61.9296101721 42.742894531
49454 21 82.2880065049 63.2923928639 44.7469867248
49455 22 84.7077899804 60.397613815 44.4666476674
49456 22 86.4848608554 61.8236294741 43.6418128966
49457 22 82.9569102752 61.8935037737 46.5257413179
49458 22 83.2818678612 64.2906505952 46.5493133708
49459 23 84.6539110024 62.9044829303 45.0018829315
49460 24 81.2501813992 55.12710858 46.3888924554
49461 20 52.684314291 74.981324893 9.86405265
49462 20 54.9705228002 75.7827746907 11.3245845293
49463 21 53.1182458517 73.9235757902 8.7337820686
49464 21 54.2244486187 76.4689833411 12.5600220116
49465 22 51.7134637482 75.7944671773 9.2544812335
49466 22 52.3120255194 74.169679247 10.969422912
49467 22 55.2978188836 74.4185889006 11.6438174739
49468 22 56.1328495027 76.5903981214 11.1181887568
49469 23 53.9712361301 75.8344087113 10.1321379815
49470 24 59.6004668523 72.0560518392 11.1417421017
49471 20 7.4784299432 30.1872218593 52.671312246
49472 20 5.2629937166 30.8076719653 51.0580297225
49473 21 6.8438459595 29.3797855085 53.8332647889
49474 21 4.0458554434 30.0572014089 51.665851943
49475 22 7.6658464716 31.5035152246 53.1447176412
49476 22 8.7339878564 29.5994171757 52.5708504016
49477 22 5.1863097129 32.0876718524 51.6219817335
49478 22 4.9222933667 30.7027202061 49.6779421506
49479 23 6.5830848015 29.9212879453 51.4155391911
49480 24 5.9661705034 33.7500628194 50.577889455
49481 20 81.3247326934 57.2185670333 4.5211007683
49482 20 79.0263639982 58.1649101243 5.8253087795
49483 21 82.4029670326 57.918338968 5.3926306534
49484 21 77.6416929716 57.7851381613 5.1208037262
49485 22 81.8737183216 57.1760063823 96.7575053743
49486 22 81.0717072845 55.9171465109 5.0322588641
49487 22 79.190807129 57.1142700533 6.7921651689
49488 22 78.8184248175 59.4303177881 6.4429433348
49489 23 80.0793425665 58.1532176378 4.6344243479
49490 24 34.1578032102 37.7796678424 75.6245051929
49491 20 59.3586662306 67.6804427544 8.8839697198
49492 20 60.819946429 69.2671599485 10.6060952621
49493 21 60.3743223818 66.5707790113 9.2562678454
49494 21 62.3483882702 68.8422082175 10.5102917043
49495 22 59.0248223548 67.6144971303 7.4972221076
49496 22 58.2860442849 67.3885982902 9.7514493276
49497 22 60.8383737878 70.6712872727 10.8386634965
49498 22 60.3213788028 68.6376364729 11.7444570441
49499 23 60.1108205051 69.0012260345 9.1997791044
49500 24 57.8068394163 66.5808813197 11.2949604454
49501 20 24.3119812202 17.1842414224 19.2943143142
49502 20 24.5124372095 15.5949051113 16.9375767262
49503 21 25.8318173913 17.5647617045 19.2817799686
49504 21 25.861563077 14.8135663904 16.851707105
49505 22 23.8703793884 17.1206342956 20.6752437451
49506 22 23.7181899835 18.2207569696 18.5489884519
49507 22 23.6216568146 14.6711051343 16.3371441572
49508 22 24.679780077 16.8055919381 16.1701754493
49509 23 24.2891574865 15.8062117281 18.4670475062
49510 24 15.5657206649 17.1577696328 10.954643609
49511 20 24.8149452214 64.3397590387 46.778579647
49512 20 25.7429544935 66.7547719796 47.9609238864
49513 21 25.2275496866 63.0432025907 47.6608479117
49514 21 26.1295548686 67.9448800301 47.0015787504
49515 22 24.9431884138 63.8454007075 45.4442330825
49516 22 23.5346647147 64.7255175547 47.17575003
49517 22 24.379891182 67.0444650262 48.3676353384
49518 22 26.7103440603 66.7938716546 49.0255949413
49519 23 25.8979500952 65.4567188933 47.0660277362
49520 24 20.7867432968 68.4762801586 34.5493611996
49521 20 96.6243045676 9.801511878 73.1272706865
49522 20 95.7923607649 11.2826412416 75.3050664604
49523 21 3.3327980378 8.6568174452 74.1834296112
49524 21 94.2951612478 11.681121183 74.8537364798
49525 22 4.1308710454 9.7393452655 72.1775601594
49526 22 95.4109986238 9.443459878 72.4914800382
49527 22 95.6511155274 10.1027851633 76.155344082
49528 22 96.2112324029 12.4190106239 76.0770511921
49529 23 96.6339391765 11.0924652864 73.9674459997
49530 24 93.9808672095 12.1758630277 80.9760159747
49531 20 91.7302973993 8.7792237483 71.5871363588
49532 20 92.3811479703 8.5750448713 74.2779049024
49533 21 90.2527412596 9.2069723221 71.3646049549
49534 21 91.1180788038 8.902911548 75.2038562969
49535 22 91.7786575236 7.3871069463 71.4642249403
49536 22 92.4041587838 9.4381374581 70.4640964111
49537 22 92.2703031979 7.1721055037 74.177443058
49538 22 93.5049362371 8.9442094105 75.0576534452
49539 23 92.2157694406 9.3526326425 73.0019272308
49540 24 5.128801387 9.0065911647 70.7495801626
49541 20 81.9859661925 88.3898007633 14.3823474866
49542 20 81.8405116599 88.8016569094 11.5684710907
49543 21 81.5672816343 89.6225630047 15.2398276799
49544 21 82.6519702261 87.4868601824 11.2468996487
49545 22 83.3744723547 88.5750097502 14.2676675786
49546 22 81.7801784293 87.192583681 15.1519001811
49547 22 80.8631133246 88.7293505726 10.4829874098
49548 22 82.659827577 89.9550973221 11.4034105966
49549 23 81.2188455352 88.4796925999 12.9662470562
49550 24 82.6787226353 86.4056325666 16.6766939664
49551 20 10.2456018709 35.3799954438 50.7339139954
49552 20 8.9320024545 33.010068731 50.1107512325
49553 21 9.8995416852 36.3293318114 49.515089198
49554 21 8.4976219024 32.8671397754 48.678187781
49555 22 11.6170089408 35.6234797836 51.1623267024
49556 22 9.2859574072 35.6305888154 51.7243143757
49557 22 9.4880690527 31.7535473569 50.4956678896
49558 22 7.7995430397 33.2825504374 50.9148201473
49559 23 10.1719859756 33.9683849282 50.0738965149
49560 24 7.7159277299 31.3412235114 46.0509328243
49561 20 28.0237376889 89.0999556261 56.2808296124
49562 20 30.3306185143 90.7219373596 56.7901543263
49563 21 26.6834045713 89.950794487 56.5565852151
49564 21 30.1625273277 92.2518758391 56.8118555813
49565 22 28.3741381257 88.3681930482 57.4614901338
49566 22 27.4791484356 88.3587455191 55.1930542041
49567 22 30.2112616117 90.2633112674 58.148634183
49568 22 31.609215303 90.4465559165 56.2047816799
49569 23 29.0712909435 90.2599438313 55.890955341
49570 24 32.0560553688 86.9068193099 51.3578250775
49571 20 63.7774907457 89.2299760765 87.4953723126
49572 20 64.5425535253 86.5592250698 87.4020195
49573 21 63.2419748619 89.9232937587 86.2152788856
49574 21 64.0718607869 85.8238144361 88.6973599294
49575 22 65.170206203 89.622375925 87.5515897879
49576 22 62.9998000806 89.7975761433 88.5437674262
49577 22 64.4917613637 85.5855683303 86.3204177246
49578 22 65.8399518323 87.1665795909 87.7172489373
49579 23 63.4776018508 87.6886257302 87.2022182899
49580 24 59.5033724441 6.2589690745 87.9647554924
49581 20 92.5049012479 51.2532474778 29.8123139707
49582 20 94.0749683412 52.1847177259 27.743866331
49583 21 91.6882044477 52.4074362096 30.5466956657
49584 21 94.3551203188 53.5734109679 28.358236344
49585 22 93.7350443723 51.1036771899 30.514237323
49586 22 91.6720220463 50.1088804347 29.8645092307
49587 22 95.2156873285 51.4255479595 28.0976342039
49588 22 93.8822761629 52.4580412914 26.3675203548
49589 23 92.6902973146 51.6920431129 28.3650647562
49590 24 90.1653750001 48.8814499671 29.5316942937
49591 20 82.5087606509 62.585792517 82.8851651777
49592 20 79.8526954073 61.9061316591 82.3968869396
49593 21 83.2482870399 62.7319953688 81.5608273817
49594 21 79.8686907289 62.3889845835 80.9169923026
49595 22 83.5977520777 62.0275464394 83.6101928834
49596 22 82.1598568524 63.8941349915 83.299453361
49597 22 79.1111111407 60.7215424623 82.3464689376
49598 22 79.316805364 63.0232785936 83.2351914549
49599 23 81.324171454 61.5965146154 82.6486963298
49600 24 81.1526192914 70.1642075162 86.2230426967
49601 20 91.9344949843 5.2247171927 34.863655238
49602 20 94.1634570794 3.4153058352 35.0442807701
49603 21 92.3659009679 6.4221961867 35.6714657484
49604 21 95.175278095 4.0567537763 36.049834613
49605 22 90.4996865754 5.0934058918 35.046993427
49606 22 92.232793701 5.5795046504 33.5057366206
49607 22 94.2579323706 95.5901275176 35.5003812853
49608 22 94.7150618246 3.7584167082 33.8213402174
49609 23 92.7461406303 4.0206960186 35.3683029572
49610 24 67.8879142357 33.2904077884 17.5089183887
49611 20 66.1327316954 34.2742603762 8.6429361252
49612 20 68.4109893137 33.4603697728 10.1514913852
49613 21 64.9110071613 34.1234740697 9.5567086257
49614 21 69.6833189296 33.0130620075 9.4131061829
49615 22 65.640337702 34.0109455792 7.3288503014
49616 22 66.4783615977 35.646584137 8.766455553
49617 22 68.6414716085 34.8433570813 10.4117100118
49618 22 68.3250261527 32.6497530656 11.3307955782
49619 23 67.1733629979 33.2114601192 9.1173891672
49620 24 22.2941386622 16.9310289337 51.9339372745
49621 20 43.1248179115 32.6037314386 79.5032303695
49622 20 40.6152361394 33.2416735044 80.7698540519
49623 21 43.245203753 31.1542372665 79.811257235
49624 21 39.5283025902 32.0769147648 80.9547824191
49625 22 43.7828710543 33.2935881447 80.5378751188
49626 22 43.5274136082 32.7537694259 78.1249200555
49627 22 41.2319446497 33.3965755662 82.0491056198
49628 22 39.8588725698 34.3713547845 80.4296494634
49629 23 41.5860866822 32.8530152517 79.574040068
49630 24 46.8946626534 36.9964583237 72.0316379273
49631 20 53.6379534936 71.842500265 74.2380569083
49632 20 51.0395088238 71.8724330305 73.0019272308
49633 21 53.9135220165 70.3592381918 73.876805844
49634 21 49.6638176268 71.95979929 73.6060078556
49635 22 54.0723527538 72.0123687095 75.5737130313
49636 22 54.361484561 72.561167258 73.1968643664
49637 22 51.1756093672 73.0179225524 72.1516496092
49638 22 51.0431568796 70.6829797593 72.2377998501
49639 23 52.0587194909 71.958022032 74.1833360713
49640 24 51.5177782934 73.2963908119 70.3880484787
49641 20 57.8448166126 34.2399312357 10.54711836
49642 20 56.249026049 34.2807146288 12.744838131
49643 21 57.2311013789 33.3578500508 9.5022964703
49644 21 57.3020981572 34.9591594681 13.6917424613
49645 22 58.6559010193 33.3734712128 11.3012182642
49646 22 58.441507586 35.2811237776 9.8384881974
49647 22 55.0233728394 34.9586917686 13.1014122006
49648 22 56.2653019903 32.8721909296 12.930795437
49649 23 56.6095287941 34.7269934552 11.263147528
49650 24 53.7339254232 36.1340205161 13.5881938005
49651 20 91.7867954943 63.4824659252 58.7449509968
49652 20 92.8111508555 60.9144217203 58.1768832305
49653 21 92.1425277049 63.6079964607 60.312492513
49654 21 93.2833402321 60.4247403838 59.5594963795
49655 22 90.5859303562 64.1999168996 58.6921009576
49656 22 92.8104025364 64.1552983709 57.9719373264
49657 22 92.3606627339 59.7409637707 57.4932001573
49658 22 93.9771256138 61.5242082786 57.5973100575
49659 23 91.6217911241 61.9072541378 58.491083729
49660 24 88.9546881733 63.2903349863 58.1586429515
49661 20 33.2007965715 31.5313901125 6.5052502571
49662 20 35.580544973 32.6480693475 7.1249988139
49663 21 33.6359441507 30.8196450716 5.2008832281
49664 21 36.3888231829 32.5457367053 8.497996062
49665 22 32.7524598674 32.8793935013 6.2347141804
49666 22 32.301784666 30.6399549383 7.1068240128
49667 22 36.623327693 32.2820477487 6.1803862109
49668 22 35.2031115073 34.0151548744 7.1554273409
49669 23 34.5001592163 31.6195046911 7.3090946761
49670 24 40.1615676615 42.3643385866 68.2315798002
49671 20 55.9317387341 73.8060896854 78.9806229908
49672 20 53.5841680555 72.1391152636 79.0896905053