ITEM: TIMESTEP
18250000
ITEM: NUMBER OF ATOMS
4000
ITEM: BOX BOUNDS pp pp pp
3.23005382 96.76994618
3.23005382 96.76994618
3.23005382 96.76994618
ITEM: ATOMS id type x y z
49081 20 27.6165585375 42.3007314598 31.6668358767
49082 20 27.2108760243 44.5771182803 30.1269821686
49083 21 27.7346994215 40.9211115874 30.9303027642
49084 21 27.6420013882 45.789675905 31.0792182729
49085 22 26.2250590987 42.3484368049 31.9882389468
49086 22 28.5179089403 42.2662152396 32.8152251352
49087 22 27.5447199002 45.1650165038 28.8515657363
49088 22 25.7854216046 44.3764752112 30.2558801403
49089 23 28.1639539876 43.4085244051 30.6381776804
49090 24 21.4810899178 42.7436428502 27.7093501107
49091 20 56.0838345991 55.4293359722 59.4740944578
49092 20 56.9574971937 57.6913176493 61.0160995833
49093 21 54.533597963 55.2662024 59.2196659505
49094 21 55.829312552 58.440665727 61.6848162738
49095 22 56.5248751916 54.1161294234 59.7765089298
49096 22 56.5742642547 55.9867401908 58.3190638669
49097 22 58.0099145227 57.671580732 62.0265175006
49098 22 57.3600928904 58.3428229996 59.7975554055
49099 23 56.2841035086 56.3241385825 60.7587713394
49100 24 57.8487452881 57.3511130608 57.971376087
49101 20 10.4150774479 15.0638791423 84.46477334
49102 20 12.3592760486 16.0292108315 86.1006925175
49103 21 11.3724676002 13.9805936489 83.9688248307
49104 21 13.7081119425 15.8598100864 85.3239372513
49105 22 9.6879357407 15.5933149331 83.3179742597
49106 22 9.5957895927 14.51844803 85.4516192044
49107 22 12.4560711293 17.242797395 86.812811718
49108 22 12.2733222416 14.8487373899 86.9141154215
49109 23 11.2335234441 16.2474394004 85.0286318112
49110 24 12.8755133606 19.8265563017 80.3642650786
49111 20 80.3988748388 89.9418146574 23.2009143787
49112 20 81.4707484654 91.66014248 25.188075852
49113 21 79.0564838435 89.2323145738 23.477886
49114 21 80.9524439218 90.8960150993 26.4339336784
49115 22 81.3846917644 88.9635744631 23.5539339325
49116 22 80.3342387732 90.3196222826 21.812034057
49117 22 82.7658082751 91.1996455899 24.9373889405
49118 22 81.4460539338 93.0717529956 25.5462400999
49119 23 80.3760511051 91.2872924691 24.1126477096
49120 24 81.9040252468 87.9396868013 25.0060472215
49121 20 62.342495257 59.6020570305 60.6541937398
49122 20 64.1775608653 61.8257808916 60.8679323938
49123 21 63.1339362862 58.3143868723 60.4379295086
49124 21 63.7807646419 63.2261666201 61.3823082619
49125 22 61.8893880184 59.9293531139 59.3092771674
49126 22 61.242279043 59.1661611321 61.4820217872
49127 22 65.5219161983 61.624670123 61.2921358057
49128 22 64.1591335065 61.9923754399 59.4720365801
49129 23 63.2060555433 60.7177073267 61.4310425458
49130 24 63.3216708502 62.5554855919 58.0164623151
49131 20 89.7477193807 46.1234262409 35.9741608401
49132 20 90.2243986722 43.3275188583 36.086315171
49133 21 90.7390551599 46.5810233943 34.8385865468
49134 21 88.8185876299 42.9585975228 36.6306238046
49135 22 89.7075907669 47.2324352047 36.9202233114
49136 22 88.4883918099 45.9868579981 35.3958972255
49137 22 90.2673334828 43.1751423736 34.6729273974
49138 22 91.0989966657 42.4651745906 36.7600830157
49139 23 90.425322361 44.8148966867 36.5458766622
49140 24 82.679845114 44.054230282 33.9040294822
49141 20 14.7714734388 58.734380989 71.5437338488
49142 20 16.5810026565 59.3864475786 73.5838389011
49143 21 13.8033355529 59.9297272735 71.5802144068
49144 21 15.9399737742 60.4846994548 74.4805123093
49145 22 13.9150221844 57.6310779586 71.2033421805
49146 22 15.6471939111 59.1569942227 70.5167593705
49147 22 17.4954486442 58.6219460384 74.3841662202
49148 22 17.2760975967 60.1072659892 72.6108369408
49149 23 15.383130795 58.4906160295 72.984341731
49150 24 18.5430954387 59.6245066047 71.2848154267
49151 20 50.8071557312 44.4747856381 59.4132935277
49152 20 51.6229171324 43.2757912978 57.1157666916
49153 21 51.1777607847 45.9629117856 59.7078506488
49154 21 51.5012217325 44.5515818897 56.1909377758
49155 22 50.8447587679 43.8679923563 60.7019926248
49156 22 49.4711254486 44.6624266621 58.8607533836
49157 22 52.7073251046 42.5102608187 56.6410517379
49158 22 50.3595673462 42.5959433601 56.9966904086
49159 23 51.9137326578 43.9921197935 58.5176490584
49160 24 49.8591289221 42.3201877574 61.1319019701
49161 20 23.320645441 66.5138132169 46.9165509882
49162 20 20.8645684873 67.4431320475 47.871780369
49163 21 23.6340976203 65.3972275218 47.8964749006
49164 21 20.234764392 66.4938892198 48.8934230734
49165 22 23.942779265 67.6802556746 47.4667526351
49166 22 23.8154714715 66.1159880547 45.6171883435
49167 22 21.5597569673 68.5354909105 48.5271208549
49168 22 19.6912976174 67.9826701466 47.173972772
49169 23 21.7519814461 66.5093233021 46.8761417547
49170 24 86.3200435651 35.2036727467 33.4782358922
49171 20 73.0638506395 94.6357399959 42.5260690605
49172 20 74.4624591101 93.6278476557 44.7260337889
49173 21 74.0919475964 94.7780141722 41.3339966723
49174 21 74.8699188812 92.5521388936 43.6708102632
49175 22 72.1642774947 95.7453101991 42.3746279748
49176 22 72.4911058786 93.3397447872 42.4462795323
49177 22 75.6654756657 93.8756348306 45.4391819283
49178 22 73.4036810684 93.0015980764 45.4345984736
49179 23 73.9970046057 94.8018668447 43.7433036798
49180 24 71.0517140149 3.5901983074 41.8723187528
49181 20 3.5683081018 11.9351568227 85.6887428315
49182 20 4.542250138 10.0088243414 83.8672405076
49183 21 96.3921385547 13.0349053372 84.8517478747
49184 21 4.8291463419 11.0696509067 82.7100584992
49185 22 4.8896853602 12.3590141369 85.9966761572
49186 22 96.284099979 11.7843611622 86.8244106647
49187 22 5.7652842306 9.817114332 84.5729054556
49188 22 4.0019253684 8.9026964063 83.0971265738
49189 23 3.4548002486 10.6570745034 84.837623351
49190 24 4.4929078448 17.1899473558 89.9546296226
49191 20 88.6672400841 82.0460188034 31.1012001476
49192 20 90.9286605218 83.8279537528 30.7534188278
49193 21 88.6920281555 81.6105906044 32.5500395403
49194 21 90.6297070258 84.4938642465 29.3374119372
49195 22 88.2342439223 80.9132507069 30.4046085692
49196 22 87.7940451889 83.1909470859 31.0611650736
49197 22 90.5360735935 84.8579215076 31.6830182781
49198 22 92.3659009679 83.6737064703 30.6936468366
49199 23 90.1913790902 82.4224233302 30.7985050559
49200 24 87.9126537724 91.4677309214 31.3009078178
49201 20 47.5591700487 69.3355376098 73.5554027739
49202 20 47.716223528 70.2039619705 76.2871417903
49203 21 46.5129263527 68.1073588231 73.7614711567
49204 21 48.4168373218 71.6340933848 76.3225934095
49205 22 48.4726806375 68.8717668235 72.5420851199
49206 22 46.7523884771 70.4217228399 73.127738386
49207 22 46.3163990388 70.4070370768 76.2450488388
49208 22 48.0940311533 69.5441315698 77.4813655961
49209 23 48.1960831758 69.4128015609 75.0387583869
49210 24 47.6525228613 68.812275452 79.2891175558
49211 20 40.3050578563 70.6019742125 74.838770097
49212 20 42.9380187465 71.1358063782 73.9752098108
49213 21 39.6412987801 72.0256513742 74.696308841
49214 21 42.9068699623 72.6394601479 73.594408909
49215 22 40.6150490596 70.5422022213 76.2111873977
49216 22 39.2709743463 69.7145612537 74.3336546783
49217 22 43.4375217717 71.2088610341 75.3227455001
49218 22 43.8452621625 70.5613778992 73.0473876184
49219 23 41.5346397414 70.5778409203 73.8528596316
49220 24 40.7290741884 69.5892177979 77.8819034152
49221 20 85.6919231879 50.5316807482 14.2940458282
49222 20 83.257734569 50.982823649 15.5949051113
49223 21 86.3852408701 49.6728909964 15.3115727773
49224 21 83.1557760863 49.4550365871 15.7500877927
49225 22 86.7407860009 51.2959016687 13.6694799669
49226 22 85.0649252894 49.5118153018 13.4592022889
49227 22 83.0945074568 51.4527680682 16.8659251687
49228 22 82.2403011598 51.2776613897 14.6369630736
49229 23 84.7128411345 51.3564219791 15.1713564787
49230 24 81.8066502188 51.6114117257 12.8411842201
49231 20 85.7873338781 84.1548756766 21.7970676742
49232 20 87.0916541372 83.1315492542 24.0963717683
49233 21 84.4114556014 83.4910230605 21.482680096
49234 21 86.1816980643 82.3550746077 25.1428025441
49235 22 86.4820546586 84.4494327977 20.5966702355
49236 22 85.5590965407 85.3512508999 22.6070296021
49237 22 88.4067314838 82.4872464756 24.0945945103
49238 22 87.0609730525 84.4742208691 24.5806277911
49239 23 86.4134899175 83.0051768596 22.6485613144
49240 24 44.2872381539 73.5337015188 12.2182927229
49241 20 70.4987061713 90.5476725402 39.8950725081
49242 20 70.2483934194 93.3262750427 39.6034151237
49243 21 71.1845406621 89.9529459046 38.5912199485
49244 21 71.7744032233 93.4705135568 39.2943593194
49245 22 69.6080193163 89.5376287825 40.3877471212
49246 22 71.5127721444 90.9874971141 40.759006954
49247 22 69.6262595953 94.2321153603 38.6795216069
49248 22 70.105277384 93.6855617693 40.9395389462
49249 23 69.769001471 91.8222471135 39.3709684912
49250 24 68.826119356 94.6346175172 42.0097288547
49251 20 49.4275358587 60.4132349771 66.1118722994
49252 20 51.4340600898 61.4756610745 67.7406824451
49253 21 48.7031629323 59.8246819743 67.3391156872
49254 21 50.8614088687 60.9074997683 69.0358357947
49255 22 49.314352589 59.4843838459 65.0456110664
49256 22 48.692967084 61.5992272723 65.9903639792
49257 22 52.8624142461 61.4478797265 67.7852074338
49258 22 50.8667406426 62.8083239209 67.6315213907
49259 23 50.8977958869 60.4657108567 66.7090309722
49260 24 47.9052676505 63.1924922589 65.7097443022
49261 20 30.7260116393 87.818272021 55.7604671912
49262 20 29.1116066371 88.4983070385 53.473416823
49263 21 30.4704606534 86.3458605754 55.8372634428
49264 21 28.4784351057 87.0768748342 53.2715577353
49265 22 29.8892973022 88.3454628543 56.7398298642
49266 22 32.0866429136 87.9901048033 56.1747553744
49267 22 28.0431939865 89.1021070436 54.2114465737
49268 22 29.2356405343 88.9963134254 52.1227943172
49269 23 30.4707412731 88.2313441857 54.296380796
49270 24 21.4910051464 93.6222352622 60.5255763878
49271 20 11.5277438215 25.6876724171 83.9141039937
49272 20 8.7124456192 25.4115426549 84.5431597698
49273 21 12.0796198325 25.394892554 85.3866089792
49274 21 8.2964830719 26.0244160296 85.932507791
49275 22 12.3133947314 26.7543078097 83.3684858016
49276 22 11.5767680791 24.39036765 83.2886962734
49277 22 7.5288853612 25.8015104661 83.7597631713
49278 22 8.7897937562 24.0328581814 84.8360331728
49279 23 10.0236504143 26.1322675255 84.1977169473
49280 24 11.8029288309 22.6792423991 82.6149284287
49281 20 26.4089585271 84.2171732449 16.9261648593
49282 20 24.4375117557 85.7520693387 18.23778123
49283 21 27.427514415 84.9806458464 17.7888832866
49284 21 23.5054802683 86.3434285382 17.1803127469
49285 22 26.3898763891 84.8260244043 15.6415815176
49286 22 26.7762896844 82.8410143485 17.0654457591
49287 22 23.5727354509 85.4405814971 19.2834636867
49288 22 25.2861056592 86.9216921527 18.4521746633
49289 23 25.0176461682 84.480394502 17.6105027118
49290 24 25.5395052276 88.4322678745 19.7418091593
49291 20 17.0966880831 11.3262963093 43.6781999147
49292 20 16.9261648593 10.3770441277 46.3021809752
49293 21 15.8762731075 12.3004488103 43.7199187067
49294 21 17.519956096 8.9934020399 46.2026545297
49295 22 16.533671471 10.1538018206 43.127904728
49296 22 18.0463986102 12.0102880642 42.81333007
49297 22 17.254115722 10.9603308345 47.5999534418
49298 22 15.5183894793 10.2836351912 46.1348381078
49299 23 17.6213533394 11.1937596358 45.1271328474
49300 24 17.4292224005 8.7199849345 42.363122568
49301 20 64.4038338649 29.8779789752 74.3523626568
49302 20 66.7167947833 28.5976984685 73.5491356011
49303 21 64.1053480684 30.9709926174 73.2805825701
49304 21 66.4114805746 27.3330391237 74.3023188143
49305 22 63.9668154878 30.3439947189 75.6046747357
49306 22 63.6670201328 28.7569033652 73.9040259527
49307 22 66.2674291404 28.3153015334 72.2011322123
49308 22 68.1201737884 28.6869355258 73.7713863853
49309 23 65.8820447839 29.573132466 74.3903398531
49310 24 65.3757133465 28.4328811781 70.6123571405
49311 20 59.7303002229 89.9166524263 89.9405986388
49312 20 59.6914811676 87.4249367736 91.2081577201
49313 21 58.2923114577 90.0782893603 89.2515837916
49314 21 61.1121650528 87.256939127 91.8529281982
49315 22 60.6887099601 90.5374766919 89.0455154088
49316 22 59.5728725841 90.5699350346 91.1680291063
49317 22 58.8101483018 87.9705549658 92.2157694406
49318 22 59.288791931 86.1128527035 90.7421419764
49319 23 59.9350590473 88.3494850697 89.9859654866
49320 24 64.3406008977 94.9023286891 88.2578159752
49321 20 83.4437854149 92.7029252 21.6567578357
49322 20 83.6076673063 94.6667952401 23.6778742899
49323 21 84.6402541781 92.9613759226 20.699657657
49324 21 84.5187458579 95.8641058624 23.2496486627
49325 22 82.3429144217 92.3308235082 20.820511198
49326 22 83.9054983236 91.7012064928 22.5248080368
49327 22 82.6472932315 95.3582421245 24.5118759702
49328 22 84.4715082123 93.8103439857 24.4531329178
49329 23 83.1405290839 94.1277248405 22.3235101884
49330 24 85.4193479415 24.0639134257 39.3027779097
49331 20 94.3469823482 29.3102853684 96.184199374
49332 20 95.8142490997 31.6210948693 96.6949271863
49333 21 94.2148104803 28.6229542394 4.0476149288
49334 21 95.6310979905 33.0557161984 96.0506244077
49335 22 95.5669296243 28.7644800965 95.7165934521
49336 22 93.1726825395 28.8827145205 95.4382187324
49337 22 96.2277889638 32.033231635 4.4468207398
49338 22 3.3966305957 31.1020420066 95.9572715951
49339 23 94.4494085303 30.8296538401 96.4958742953
49340 24 32.0774760041 62.7096393345 43.1836545038
49341 20 82.5178340204 46.3772935088 37.8863968596
49342 20 84.102399797 44.6367967316 36.4418603019
49343 21 81.4630781942 45.1971942268 38.2766452905
49344 21 84.1837795034 43.1304303051 37.1425676355
49345 22 81.8336832477 47.0737915473 36.8713954876
49346 22 82.6666559892 47.2138207661 39.0103722062
49347 22 82.9345542409 44.6192112319 35.5891506431
49348 22 85.354618336 44.865034069 35.8185104592
49349 23 83.8305728698 45.7034321242 37.5242103964
49350 24 84.5650481046 44.7524120386 31.29894348
49351 20 57.3223963138 63.8857164011 25.1684324746
49352 20 56.4086986452 62.255596697 23.0756644629
49353 21 56.7155094922 63.3945384264 26.5446849109
49354 21 55.6557960516 61.1308730312 23.8355825484
49355 22 57.228388722 65.3135093181 25.2728229945
49356 22 58.6999583086 63.5258684352 25.1388738687
49357 22 55.5128670961 62.3719603231 21.9587981481
49358 22 57.6886985323 61.6990343374 22.729660401
49359 23 56.3179649496 63.4849915023 24.0173305593
49360 24 48.5820287717 66.8427930183 20.7212653722
49361 20 47.4487929758 11.3906236933 5.8143926741
49362 20 49.9638936015 12.617062638 6.2725791288
49363 21 47.6090268114 10.129949148 4.8782547853
49364 21 51.1654135189 11.7104646473 5.8150100374
49365 22 47.2013799605 12.4417408177 4.9609253422
49366 22 46.4537156008 10.9460847089 6.7663388047
49367 22 49.7961765745 13.6171911671 5.2523395229
49368 22 50.3546097319 13.2527597465 7.4806281307
49369 23 48.7942707875 11.5772077166 6.5610842188
49370 24 50.8743173739 6.270661561 8.4007145739
49371 20 6.4083709906 18.6316777167 82.1804356287
49372 20 8.7680831472 19.8900698887 83.0917012601
49373 21 6.4866171105 19.4666147959 80.8037154929
49374 21 9.0745853125 20.0429140728 81.498903973
49375 22 5.0119232915 18.561055098 82.4775183268
49376 22 7.0870309716 17.3814235155 81.8820433721
49377 22 9.0798516084 21.1927064297 83.5828792348
49378 22 9.6869161558 18.812209709 83.4733440209
49379 23 7.2243381796 19.5005697769 83.1778515009
49380 24 9.3492932683 22.3570910098 85.0335894255
49381 20 5.9336092669 37.7025909711 53.5175676522
49382 20 4.8570867077 39.2984750746 55.6075294672
49383 21 5.1859355533 38.3904833395 52.2166148292
49384 21 3.5486506934 39.6981710347 54.862110065
49385 22 5.1130118532 36.5943303264 53.9420516837
49386 22 7.294436975 37.4061630522 53.0812040543
49387 22 4.4571662519 38.1699162733 56.4157141372
49388 22 5.1820162318 40.4770777184 56.4002800549
49389 23 5.9229363652 38.9344178136 54.5147964446
49390 24 12.0524932637 33.6525007117 47.6646830473
49391 20 21.8709641892 10.6017456571 43.6833446088
49392 20 20.4792776706 8.1606070242 43.4218070698
49393 21 22.5741970999 10.9143185614 42.3454435284
49394 21 20.2181142912 7.7244024442 44.8132129686
49395 22 22.7581900682 11.0837005985 44.7314591027
49396 22 20.6217389267 11.2384342884 43.6601467155
49397 22 19.3245276995 8.9138276535 43.0316521787
49398 22 20.6875910109 6.9821446903 42.6952827258
49399 23 21.7305608107 9.0881860128 43.6568728193
49400 24 20.6167813124 6.7113934719 40.9594629433
49401 20 22.8552844765 88.9464566628 21.1015985745
49402 20 22.0452290086 86.9800610456 22.9164595661
49403 21 22.086667181 88.6388039568 19.7659424515
49404 21 23.1032587311 87.1841650907 24.1274270126
49405 22 24.0893562764 88.2712857197 20.8977751491
49406 22 23.0170149504 90.3622764735 21.083825995
49407 22 20.8357582004 86.6141329867 23.4788213989
49408 22 22.5911278204 85.9262406182 22.0922795745
49409 23 21.8986519973 88.3903620027 22.2657960748
49410 24 25.6420249497 81.9419089032 18.1759513612
49411 20 19.8849251946 42.9190301483 23.9633580414
49412 20 21.7015634441 44.7958145486 25.1614169827
49413 21 18.6731158891 43.6070160566 23.1688301957
49414 21 20.8123732273 45.9369076955 25.2954596485
49415 22 19.3496899305 42.7103426485 25.2663687419
49416 22 20.2247556235 41.7401468849 23.2888418776
49417 22 21.5963310652 44.1152182918 26.4068071096
49418 22 22.9220719596 45.5010117971 24.9637671902
49419 23 21.1012244149 43.9129850445 23.9468014804
49420 24 24.2506190508 44.3124939248 23.8624284975
49421 20 18.6986522797 4.2166284187 41.6057300596
49422 20 16.5661298136 5.6723429936 42.7415849725
49423 21 19.6441535116 4.0738379022 42.8074370567
49424 21 15.6995762508 6.0478775994 41.4344585167
49425 22 19.2592368546 5.3768224116 40.8957622766
49426 22 18.7930340311 96.5798731187 40.8446894954
49427 22 15.5762906727 5.5156730278 43.7586442222
49428 22 17.4907716496 6.7635138999 43.0092026046
49429 23 17.2939637161 4.3265097303 42.3300094461
49430 24 13.8912630517 10.3799812803 47.0057880455
49431 20 90.1979268826 96.2318111792 67.2050730214
49432 20 87.6862872329 95.1162544229 67.0562510527
49433 21 91.0627967274 95.4984584231 66.0258155984
49434 21 87.6452232201 94.2817850432 65.7014192517
49435 22 91.06055177 96.354535518 68.3042602965
49436 22 89.6599789617 3.8896241798 66.7191332806
49437 22 86.8767930044 94.2895488543 67.8987648632
49438 22 87.076126515 96.4146816688 66.7105276105
49439 23 89.1768454176 95.1137288458 67.5106678498
49440 24 86.7842820509 6.5463236238 69.7460841974
49441 20 44.1895825063 35.3150787585 79.4102517164
49442 20 42.6009945143 34.3987619729 77.2862413806
49443 21 44.2763875264 34.5043685114 80.6801492951
49444 21 42.6386910909 32.8373005498 77.3616345339
49445 22 44.2625436223 36.7406267181 79.8323972507
49446 22 45.2897051803 34.9372711333 78.6653000137
49447 22 41.3206204677 34.630740906 76.7189219335
49448 22 43.7008365687 34.8073442228 76.500319205
49449 23 42.8310091096 34.8963942003 78.7738062888
49450 24 47.0034495482 34.4885602696 77.6574076735
49451 20 87.4188566806 69.8149295582 41.6091910356
49452 20 86.0751561269 69.8659087995 44.0788312737
49453 21 86.1595291098 70.0677678872 40.6027017938
49454 21 84.635951343 69.5267331498 43.4453791226
49455 22 87.4557113982 68.4190337445 41.7422983024
49456 22 88.4512564726 70.5098374185 40.9435611616
49457 22 86.5812069445 68.6232313295 44.5004155686
49458 22 85.8794706721 70.80402038 45.1084248689
49459 23 86.9038260333 70.498144932 42.8717925027
49460 24 87.6360563107 62.762208754 44.2201700511
49461 20 51.0542881268 84.7466090357 15.110274929
49462 20 52.3030456898 87.3332676791 15.2151331483
49463 21 52.1329901655 83.8785588346 14.5799972792
49464 21 53.7769537737 86.9662171415 15.3463696173
49465 22 49.936579953 84.1640425861 14.4736424216
49466 22 51.0177140289 84.4686084756 16.5742677843
49467 22 52.4677694402 88.4884853498 14.3815056276
49468 22 51.914387437 87.6727239485 16.5160859712
49469 23 51.5127271392 86.1671058411 14.604504731
49470 24 52.3440161626 80.5631308898 19.0063985255
49471 20 14.469807286 35.1223865802 51.3942120956
49472 20 14.6782141661 33.2079056033 49.3588775777
49473 21 16.008819135 35.3331319577 51.7604207742
49474 21 16.0945952163 33.6147105952 49.0574920446
49475 22 13.813718481 35.1769203375 52.6559717036
49476 22 14.1363375697 36.1955697653 50.5291551711
49477 22 14.7564135162 31.8008785424 49.1833031998
49478 22 13.9225053758 33.8722259188 48.3450922243
49479 23 14.320330538 33.6789725012 50.8054720131
49480 24 13.0034759333 32.5899810744 51.6325517413
49481 20 82.5063286137 50.6822799749 10.2814837736
49482 20 79.9558699086 49.9862496358 11.3555930036
49483 21 82.1985823678 52.1545978806 9.8397603399
49484 21 80.1178810022 48.6695821109 12.0317741775
49485 22 83.3432300306 50.2217830848 9.3105958149
49486 22 83.097874893 50.7454194022 11.6067476146
49487 22 80.1988865489 50.9275415726 12.4064388624
49488 22 78.6511754899 49.910482323 10.7537666902
49489 23 81.0993950927 50.0252557709 10.2454615611
49490 24 39.7909626079 40.2570718916 67.6104749149
49491 20 54.7026245485 78.1446569728 16.3980386271
49492 20 55.2988478224 78.9836162674 18.9622476963
49493 21 55.7770237521 77.0907430056 16.5906372654
49494 21 56.7153224124 79.5254928638 19.3379039041
49495 22 54.8043024115 78.588597302 15.0618212647
49496 22 53.4719201847 77.5834176187 16.6687430756
49497 22 54.3224784259 79.892917561 19.3920635017
49498 22 55.1756557842 77.6440314689 19.4215285678
49499 23 55.1811746378 79.1566650683 17.4234229271
49500 24 51.7031743601 77.2540636577 16.5407805028
49501 20 22.0642176068 14.9351682505 23.4580555428
49502 20 21.7590904779 14.452408866 20.5999441318
49503 21 23.0273043385 16.1886028081 23.6149219423
49504 21 21.2543492187 13.0164779784 20.3837734405
49505 22 22.5218147602 14.0183837654 24.4731504547
49506 22 20.7983422435 15.4926660089 23.6499058621
49507 22 20.6960096012 15.4167116163 20.4209087778
49508 22 22.7733435308 14.6154488984 19.6072987941
49509 23 22.395161746 14.3135956657 22.0406455539
49510 24 17.6067611162 17.4506430358 10.6010908779
49511 20 32.5592064498 69.7835001543 49.3610289953
49512 20 30.8839069776 72.0696151236 49.5652265803
49513 21 33.2977974399 69.472667092 50.666471733
49514 21 30.6041291596 72.641050326 48.0816838875
49515 22 33.5257541575 69.5865986809 48.3734348117
49516 22 31.3973474468 68.9900947873 49.2919030148
49517 22 29.7846261626 71.2125090899 49.8073078217
49518 22 31.0962425333 73.3183726866 50.3234609478
49519 23 32.3040296234 71.3200799661 49.4352996698
49520 24 31.2949212647 69.7019333682 40.1010473511
49521 20 95.5178211808 6.1382745514 77.8135257539
49522 20 95.2274733549 6.6533332607 80.5879189613
49523 21 94.9605105022 4.6938689495 77.7926663579
49524 21 94.4276137354 7.938290762 80.2951390982
49525 22 96.6798672636 5.9202424163 77.0119824162
49526 22 94.5025391892 7.011113995 77.2501349822
49527 22 94.2920744313 5.7626183437 81.0327011494
49528 22 96.1119865771 7.0994156534 81.6086262667
49529 23 95.9509108825 6.3613952566 79.2919237526
49530 24 95.048438001 10.2754317426 85.3142091025
49531 20 90.7051937189 7.1546509598 76.386481156
49532 20 90.4376696268 5.741515744 78.7950398444
49533 21 89.3641122821 7.8364258193 76.3206290718
49534 21 89.0911628762 6.2719617656 79.4553379446
49535 22 90.4880876287 5.9902663797 75.5990623421
49536 22 91.6534076078 8.030427556 75.8647156364
49537 22 90.0880175091 4.5513141536 78.0925552528
49538 22 91.342948705 5.5541366316 79.9313624568
49539 23 90.9627090426 6.8704112889 77.9349405341
49540 24 96.5576106243 4.5152077551 75.646112908
49541 20 79.9284627201 83.4441595745 15.2886555037
49542 20 78.2866505294 84.6892690817 13.3570567265
49543 21 79.1293514197 83.411514152 16.6451710227
49544 21 78.6257326392 84.2761033771 11.8906786039
49545 22 80.7657382966 84.5974129074 15.3638615771
49546 22 80.5950279931 82.180996868 15.314472514
49547 22 76.8890709977 84.8485675184 13.3298366178
49548 22 79.0446978171 85.9384008042 13.5265510114
49549 23 78.7338647548 83.5442472593 14.2904913123
49550 24 81.4298715324 80.8163433784 14.5459487584
49551 20 10.2514761762 35.7121556016 54.3533465904
49552 20 10.5762653904 34.7146461894 51.7525634232
49553 21 9.2524140018 34.8152015737 55.0183216852
49554 21 9.3842210642 34.031992055 51.057562023
49555 22 10.052638427 37.0127342649 54.9433026915
49556 22 11.5437110811 35.182532731 54.6252670575
49557 22 11.2555520887 35.3544590532 50.7018298124
49558 22 11.3423290469 33.5984346539 52.2412158209
49559 23 9.9493049079 35.7044853304 52.8230339514
49560 24 9.0349711681 34.2749151555 48.0678399834
49561 20 21.9361614941 92.3946177148 58.0125336396
49562 20 23.7135129889 94.5414517844 58.7559887041
49563 21 20.9768163581 92.9200312902 56.9313060239
49564 21 23.6250242507 95.8414692084 57.8539835221
49565 22 21.1392951511 92.4783359185 59.1913233632
49566 22 22.1909641609 91.0562489349 57.6398707085
49567 22 22.7256381857 94.7612705314 59.881460689
49568 22 25.1273684619 94.4704550061 59.0441851125
49569 23 23.2633990268 93.2829660726 57.9113234761
49570 24 26.7281166399 90.0030832869 54.9572401355
49571 20 57.2829224792 93.5788327521 91.5672573669
49572 20 57.7548312362 91.7567691888 93.7217617076
49573 21 57.3429750901 92.7938459754 90.2043811352
49574 21 57.3071493114 92.5698179332 94.9193529495
49575 22 58.5925745122 94.0795517959 91.7873567336
49576 22 56.2382689614 94.5051583061 91.5789498534
49577 22 57.3628055473 90.3924898588 93.9431706328
49578 22 59.1726153847 91.9780845741 93.6780785779
49579 23 56.9235422128 92.3905019596 92.5450298617
49580 24 60.5121066433 7.7907783518 84.6080764551
49581 20 94.5428548828 45.9797489662 37.7729329701
49582 20 3.5658292946 46.8377903989 36.9102145429
49583 21 93.5397330771 46.9376910039 37.0895305166
49584 21 3.2614347702 47.9023679138 35.8320737436
49585 22 94.8755762799 46.477942433 39.0707054367
49586 22 93.7565585476 44.7875830381 37.7138157582
49587 22 3.7040934157 47.5758201496 38.1330615557
49588 22 4.7854538581 46.1888106257 36.5974171429
49589 23 95.8151844986 45.9072555497 36.8651283148
49590 24 92.557002968 43.4499625774 37.6632106764
49591 20 79.7425054141 55.2263544058 88.8985642379
49592 20 77.4869779896 53.4491899909 88.8085788614
49593 21 80.4572437316 55.6855417374 87.5279241951
49594 21 76.6681297719 54.161683351 87.6945187434
49595 22 80.6530227263 54.9537791595 89.9156234875
49596 22 78.8211374744 56.288125724 89.0616978101
49597 22 77.3100940532 52.0734987939 88.4383479675
49598 22 76.9879426639 53.8823732324 90.1006453946
49599 23 78.9555542997 53.92792716 88.4881111902
49600 24 74.490333998 61.1695985467 90.1834281993
49601 20 90.4635801769 89.5212593013 31.1722904658
49602 20 92.8349099882 88.4793184403 32.2689521638
49603 21 90.7196924022 89.5073218574 29.6221473696
49604 21 93.6457137751 88.0328525341 31.0836146478
49605 22 89.6151733532 90.6409318129 31.36844362
49606 22 89.7547348726 88.3100112351 31.4868651238
49607 22 93.7662866964 89.0375645179 33.2502791745
49608 22 92.1147463569 87.2973483605 32.7535823461
49609 23 91.858259972 89.61797955 31.7706651572
49610 24 71.3499191918 36.5747804889 16.0117188716
49611 20 70.0407348583 36.0944531416 11.2810136474
49612 20 71.4544032516 38.2020004564 10.2825688364
49613 21 69.0854119376 36.7771072761 12.3922862767
49614 21 71.7226756628 37.6779899794 8.8307174591
49615 22 70.3438041096 34.828016539 11.8873579377
49616 22 69.3091593602 36.0079287412 10.1030844909
49617 22 70.2730879509 39.0049468924 10.1488348523
49618 22 72.5936256006 38.9471392389 10.5925506857
49619 23 71.2826640092 37.0411703922 11.3038186732
49620 24 18.5682576697 16.4321806878 47.3717161045
49621 20 37.0885951176 35.6123485364 77.0825114951
49622 20 35.7678118375 36.468706251 74.6686210328
49623 21 36.8728921259 34.0907351074 76.9294802312
49624 21 35.592705159 35.1633570531 73.7885977255
49625 22 36.0539503682 35.9953943956 77.9857326957
49626 22 38.4403401021 35.6706238894 77.5258905849
49627 22 34.4993173572 36.5872212946 75.2712050194
49628 22 36.0942660619 37.5127049896 73.7605357578
49629 23 36.9572651088 36.2344823605 75.607013233
49630 24 45.0450048219 38.1372708509 79.3064224359
49631 20 57.561203659 74.7615996858 76.4782437904
49632 20 55.6253955866 73.6197582198 74.6576768654
49633 21 58.7662780923 73.9191794152 75.980705103
49634 21 54.1285702291 73.2959231124 75.1248150879
49635 22 57.7915924139 74.8149174245 77.9267090236
49636 22 57.7129253644 76.0725612773 75.9151336384
49637 22 55.5424257021 74.78404926 73.8039382679
49638 22 56.0696165354 72.4477033685 73.9545374946
49639 23 56.4130950202 73.7634354945 75.9628389835
49640 24 56.4314288391 75.6265630705 72.2255461242
49641 20 58.3793970975 40.2429473678 12.8276209357
49642 20 59.6113174799 42.3557329165 14.1388631468
49643 21 58.1293649652 39.2843505509 13.9635693885
49644 21 59.8582627957 43.5316229034 13.1056214958
49645 22 58.6928492768 39.3517928133 11.7405283687
49646 22 57.1686167308 40.9535699301 12.7395063571
49647 22 58.3975438366 42.6107226631 14.8222656004
49648 22 60.693106335 42.3910909959 15.1120521869
49649 23 59.6071081847 41.0202638733 13.3338588332
49650 24 56.7568541246 42.4010062244 15.7310991946
49651 20 7.1699353782 61.1454652545 46.6926164859
49652 20 4.6612422351 59.9096161966 46.931517371
49653 21 8.0236178519 60.8273360805 47.998620463
49654 21 4.7057110999 58.8926504869 48.0906637171
49655 22 7.5283708918 62.476350843 46.4728912788
49656 22 7.6157090893 60.1535682359 45.7578723416
49657 22 3.260512841 60.3782510573 46.9361008257
49658 22 4.9123874921 59.17673114 45.7692842084
49659 23 5.7395046363 61.0788648511 47.2067117343
49660 24 6.1242529215 63.6959239595 46.8304942873
49661 20 31.7166926393 35.1010594848 18.0346125838
49662 20 32.9756460506 32.6825855678 18.691449708
49663 21 32.8079290236 36.2882677986 17.8456620012
49664 21 31.7165055595 32.4798846211 19.6322739453
49665 22 31.2684494751 35.2816850169 19.4100231611
49666 22 30.7270405781 35.465865065 17.0439315838
49667 22 33.1790953165 31.3646084845 18.2409615864
49668 22 33.9559441225 33.1710508857 19.5367697152
49669 23 32.5243160699 33.8181598611 17.6785062136
49670 24 53.0977606153 40.9869636716 66.1919424473