ITEM: TIMESTEP
18500000
ITEM: NUMBER OF ATOMS
4000
ITEM: BOX BOUNDS pp pp pp
3.23005382 96.76994618
3.23005382 96.76994618
3.23005382 96.76994618
ITEM: ATOMS id type x y z
49081 20 28.0112033434 44.3370949165 38.2353006581
49082 20 26.5778915727 44.9982348757 35.8555522566
49083 21 28.4897534327 42.8863847259 38.0256777593
49084 21 26.367333275 46.6064662451 35.7174873754
49085 22 26.7909754475 44.1572177035 38.9779138635
49086 22 29.0589436777 45.0276999418 38.8800711361
49087 22 26.7912560672 44.5142594726 34.5303726015
49088 22 25.3254859539 44.5867528892 36.3989254913
49089 23 27.9007327305 44.8838355874 36.7635439917
49090 24 26.1267486719 43.0197726124 33.3643043033
49091 20 65.7180693526 47.8835663954 50.4915521343
49092 20 67.5584667348 46.2171532131 51.8189767468
49093 21 64.5677157563 46.9833384714 49.8289155369
49094 21 68.9823309763 46.9172993074 51.9393625883
49095 22 65.8442546674 49.050195933 49.6510962015
49096 22 65.218005088 48.0924409751 51.8213152441
49097 22 67.0807585045 46.5210643233 53.1341476334
49098 22 67.8895044138 44.825934394 51.504215009
49099 23 66.9613080619 46.9654723519 50.5540367824
49100 24 64.9304634589 49.4078924813 53.0218062227
49101 20 11.8632994774 19.2173309828 82.9790792297
49102 20 13.8149344996 18.5284096756 84.8686785952
49103 21 11.9820109548 17.9490235823 81.9917656658
49104 21 14.620125893 17.3117362957 84.194536591
49105 22 11.6773047554 20.2322388149 81.9505145733
49106 22 10.7468073222 19.0596227243 83.7870768199
49107 22 14.8299358716 19.2396870171 85.6715314913
49108 22 12.7850602847 17.9486494227 85.6445920023
49109 23 13.2635168341 19.3206925639 83.6546243323
49110 24 16.7456328671 22.8813821064 78.4307955035
49111 20 81.4878662657 83.050917867 21.381844092
49112 20 82.6620725344 85.1024347862 22.9305840898
49113 21 80.0872934573 83.6064512877 21.3596751375
49114 21 81.2623415852 85.1790439581 23.5898532512
49115 22 81.5031132681 82.1652821661 22.5324783079
49116 22 81.8138527905 82.4094212852 20.1321511301
49117 22 83.3965477693 84.3450422778 23.8005986287
49118 22 83.0628909732 86.4646562387 22.8608033301
49119 23 82.3699474506 84.3342851902 21.6069946129
49120 24 83.1938468225 82.3005408505 23.7854451661
49121 20 66.8349356674 49.0300848561 55.4378481024
49122 20 67.3789636813 47.9926339099 57.9569709436
49123 21 68.1182094506 49.1388717509 54.6811103732
49124 21 66.0273122367 47.7220230013 58.7587949009
49125 22 66.6721762547 50.2940894216 56.0825250406
49126 22 65.7770930247 48.754703413 54.4757903095
49127 22 68.1976248193 46.9386264028 58.3484353931
49128 22 67.9059674349 49.2747852145 58.3460033559
49129 23 67.0039622529 47.8157499735 56.4409699081
49130 24 67.3748479261 50.9122945702 58.9075233297
49131 20 85.5473105143 43.772675206 30.4923489882
49132 20 87.6324082549 41.8506174978 30.5500631018
49133 21 86.3725194447 44.7884248971 29.5802414978
49134 21 87.1015693657 40.4253501579 30.8971896423
49135 22 84.8997338395 44.6345517742 31.4704956426
49136 22 84.7286493764 43.0491441386 29.4979263925
49137 22 87.7007859162 41.9159083427 29.1319047937
49138 22 88.8719989084 41.8829823006 31.2093322631
49139 23 86.7470531737 42.9676708924 31.1906242847
49140 24 82.052379516 38.625549089 26.3730392085
49141 20 11.8102997744 59.1956261982 66.609317447
49142 20 13.1288193891 61.6033430276 67.2640966935
49143 21 10.2486419174 59.5367661856 66.6763855498
49144 21 11.980093387 62.3866460862 66.5392560676
49145 22 11.9021933646 57.8378011207 66.9470899983
49146 22 12.2043646329 59.3321944411 65.2731000846
49147 22 13.467807959 62.3769179374 68.3902234576
49148 22 14.1382083676 61.5563860016 66.3136378472
49149 23 12.6212719332 60.1928549907 67.5542574396
49150 24 15.4183953344 60.8103118201 65.3775841444
49151 20 52.9331304047 45.9449521263 65.1178238633
49152 20 54.3953460021 43.8663086383 66.3956723328
49153 21 54.0642147831 46.4094712317 64.2350878991
49154 21 55.5126800163 44.037767261 67.4875634964
49155 22 52.3109965806 47.1911841122 65.3904926495
49156 22 52.1791988723 45.0689510343 64.2840092628
49157 22 53.637672874 42.7166098213 66.738776658
49158 22 55.0825835913 43.5633329269 65.1696449637
49159 23 53.592493106 45.2462091304 66.3388000783
49160 24 52.1257875938 41.3053734652 66.8107088352
49161 20 18.021423459 68.654941353 46.2221108273
49162 20 15.7857264917 69.2960637752 47.8492372549
49163 21 18.0456502911 67.1761691947 46.8693133426
49164 21 15.5904151964 67.7991448778 48.3776441069
49165 22 18.9462523747 69.4123338614 47.0660277362
49166 22 18.519336306 68.5017230093 44.8654082286
49167 22 16.5704326487 70.0178175847 48.758164389
49168 22 14.4938470383 69.841120728 47.6403626753
49169 23 16.5114089766 69.0162859572 46.437907359
49170 24 90.5040829503 32.2912146582 27.1373536689
49171 20 78.4336952402 93.3050414872 41.5991822671
49172 20 80.6518067077 93.7895781296 43.3205033663
49173 21 78.6934555213 92.2719869159 40.5248766034
49174 21 81.1152968744 92.3138927877 43.2230347985
49175 22 77.5262647444 94.2461463442 41.0418715885
49176 22 77.8911638645 92.5546644707 42.7021111379
49177 22 81.8936423187 94.434067988 43.1794452087
49178 22 80.0232186311 94.0566345223 44.5540139269
49179 23 79.838196724 93.944760811 41.9653909457
49180 24 76.1508541672 95.3146525346 39.8737454127
49181 20 96.6480637002 19.4287311395 84.6234169975
49182 20 96.6813639019 18.5432825185 81.8917715209
49183 21 3.3375451873 20.9455740341 84.4197806518
49184 21 3.5400571835 19.8060710653 81.1716078896
49185 22 4.4118181121 18.9601898187 84.9326598816
49186 22 95.8118170625 19.3956180176 85.7518822589
49187 22 4.3851031188 17.8723208706 82.1077551323
49188 22 95.7152838936 18.0007511428 80.9902340383
49189 23 95.9923490548 18.9580384012 83.2665273189
49190 24 6.9709760272 23.0360035485 89.2585057437
49191 20 94.4014225655 80.4764194096 25.0269066175
49192 20 93.977780393 82.3441304403 22.9593943767
49193 21 95.6914312211 80.7938938042 25.8508995293
49194 21 92.3679588455 82.1143029248 22.6361205087
49195 22 94.30189612 79.0501231309 25.0443985774
49196 22 93.3497535557 81.0949987177 25.7629720305
49197 22 94.0410133603 83.4698830449 23.8693504495
49198 22 94.4607268573 82.6891055633 21.6745304152
49199 23 94.4824281123 80.9805058895 23.5374709115
49200 24 89.5259362959 88.3541620643 25.7433286531
49201 20 48.8118562872 65.3777712242 67.1873939818
49202 20 48.2649285366 67.2959002569 69.1214247962
49203 21 48.6890384086 64.0747605236 67.9123281476
49204 21 48.8216779759 68.7389401763 68.742681772
49205 22 50.0753931532 65.3065873661 66.4098903965
49206 22 47.5660920008 65.6885107466 66.516338794
49207 22 46.8305878271 67.3122697381 68.8667156693
49208 22 48.5476996312 67.2218166622 70.5157304317
49209 23 49.2063140133 66.3023195203 68.3720767185
49210 24 48.7279510038 67.1075109137 72.3736197738
49211 20 40.9618949805 67.3866339525 68.1152161741
49212 20 43.7194510073 67.9167245225 67.4453770049
49213 21 40.0822458327 68.555882607 67.911953988
49214 21 43.9757503123 69.4020444733 67.1801914101
49215 22 41.3213687868 67.4752162306 69.4606939858
49216 22 40.0796267157 66.2922172119 67.6803492145
49217 22 43.989968376 67.7775371627 68.8232196194
49218 22 44.5421343606 67.2355670263 66.5093233021
49219 23 42.1661275547 67.6301182923 67.0775781481
49220 24 41.7274254596 66.6653478425 71.0463822411
49221 20 88.8348635712 59.1770117596 5.4536186633
49222 20 87.9753255003 58.8107095412 7.9969028586
49223 21 87.4356938613 58.7176373483 4.8974585252
49224 21 86.8134664973 57.7067517315 7.7802738219
49225 22 89.7882221541 58.7170761089 4.45190931
49226 22 88.8941678629 60.6010630809 5.5478507508
49227 22 88.5138346606 58.5193327764 9.3011482857
49228 22 87.2650770976 60.0543224101 7.974846152
49229 23 89.0075382125 58.5306511034 6.872085653
49230 24 86.3587690805 61.5078387975 7.590752646
49231 20 86.8166468536 76.832292283 20.840435195
49232 20 89.2844162939 78.2708422876 20.8336067829
49233 21 86.7897073646 76.0818217266 22.1872225652
49234 21 89.9083273759 77.8056684029 22.2015341688
49235 22 86.0890000309 75.9564782708 19.9070941491
49236 22 86.1935776306 78.0701056786 21.1363954145
49237 22 90.3336532665 78.5498717865 19.9168222979
49238 22 88.6475031668 79.4903218643 21.2578101947
49239 23 88.3450886948 77.0676386522 20.4446679105
49240 24 44.7930083519 74.6192319697 20.4032297381
49241 20 75.1335142979 89.4846852034 42.9783344401
49242 20 73.8845696551 90.9686955957 41.0108163442
49243 21 75.6030845575 88.2108589492 42.1577089644
49244 21 74.3986649035 90.2611598499 39.7168790132
49245 22 74.8791793305 88.9843403192 44.3344757995
49246 22 76.2081941212 90.4155006723 42.815949187
49247 22 72.4905446392 91.1029253412 40.7784632516
49248 22 74.5201732237 92.2098764274 41.2146397696
49249 23 73.8783024823 89.9008441845 42.2062561685
49250 24 74.0437745519 93.5759330154 42.4815440718
49251 20 53.7905170581 56.4778246257 61.41869528
49252 20 55.3690962816 58.2220629985 63.0227173542
49253 21 53.1058985859 55.4979007133 62.4150822135
49254 21 55.7360532793 57.8745622984 64.5220682889
49255 22 53.9362522104 55.6690787163 60.3004258669
49256 22 52.8582984908 57.5935684618 61.2959709413
49257 22 56.4698737348 58.9306276832 62.6085227109
49258 22 54.2166848077 59.0841266465 63.1516153259
49259 23 55.1029752878 56.9200812368 62.1581281291
49260 24 52.89375011 59.431346727 61.4533050402
49261 20 31.0454503717 94.3913202571 61.0991630077
49262 20 29.8014633432 93.5669531858 58.8008878525
49263 21 30.1404519131 93.7819078584 62.1722526529
49264 21 28.9190079987 92.2647843442 59.0096688922
49265 22 30.5409897322 95.7123841569 60.9932758496
49266 22 32.3362073464 94.2127526026 61.6677920134
49267 22 28.9062865733 94.6211477727 59.043717413
49268 22 30.3336117909 93.5141966865 57.4771112958
49269 23 30.8752077676 93.4173828979 59.8638751892
49270 24 22.8975645078 8.9030892738 60.5864708577
49271 20 17.4150978767 27.3424866529 83.4779274756
49272 20 15.311011538 28.5774938517 84.9038495947
49273 21 18.0157175256 26.411671184 84.56037111
49274 21 15.5834932444 28.8489466193 86.3624171363
49275 22 18.4629317509 27.851624287 82.6863929065
49276 22 16.4804472722 26.5647024479 82.7992955565
49277 22 14.6212483717 29.7619895087 84.5653287243
49278 22 14.5528707104 27.3660587057 84.9393947538
49279 23 16.7592896914 28.4759095286 84.2141799684
49280 24 16.3131979447 25.4660764121 81.1842357751
49281 20 21.7916423604 90.5871463748 9.9383981564
49282 20 19.8024230095 90.8909639451 11.8885552483
49283 21 23.1182251139 90.9275380431 10.7121227301
49284 21 18.6177402728 91.0033053559 10.9071721136
49285 22 21.4582661841 91.8031649754 9.2716177417
49286 22 22.1153839279 89.5125600913 9.0938638843
49287 22 19.4672695752 90.1804349228 13.0957062672
49288 22 20.2692806123 92.211092446 12.0950726227
49289 23 20.7473630021 90.0374124274 10.9534182364
49290 24 19.1296841037 93.0479003231 13.2273168958
49291 20 20.6460592987 10.5149874069 40.0941253991
49292 20 21.3420896378 8.9346683415 42.2251512268
49293 21 19.2804704102 10.867745049 40.6257126073
49294 21 22.3376347122 7.8790706562 41.667934088
49295 22 20.4583247347 9.4021433075 39.2702260272
49296 22 21.0383656073 11.7187896977 39.4421523493
49297 22 21.7564713609 9.1031523956 43.5740900145
49298 22 20.0475910674 8.3836061276 42.0175862057
49299 23 21.5535833344 10.1478339754 41.3426023424
49300 24 21.5776230867 8.3236377026 38.2445611074
49301 20 66.6130590427 30.3568096842 79.521844808
49302 20 67.0899254139 27.6199259736 79.0858553697
49303 21 68.04057134 30.8304956991 79.755600999
49304 21 65.8126381838 26.9323142249 78.5575420577
49305 22 65.8982271853 31.2011942925 80.385685714
49306 22 66.4093291571 30.6675492066 78.1373608612
49307 22 67.7293641181 28.0032524525 77.8448616178
49308 22 67.7570519262 26.5835975062 79.8280008757
49309 23 66.5583382056 28.8131208406 79.9622306213
49310 24 67.0022785348 28.6387624812 76.3007986146
49311 20 56.3069272424 85.7239138311 92.9769035448
49312 20 53.5842615954 86.023802726 92.8857956896
49313 21 56.1430453509 84.242335476 93.4436676076
49314 21 53.5285118196 87.5182895862 93.3056027265
49315 22 56.664436711 86.3094735572 94.1963831215
49316 22 57.4221098391 85.643188904 92.080791376
49317 22 52.5224902773 85.8853636853 91.9323435668
49318 22 53.2712771156 85.3760389714 94.1288473192
49319 23 55.0121480523 86.1062113711 92.2484148631
49320 24 61.231054256 90.0247845419 91.7782833641
49321 20 83.3834521843 84.9720401763 18.0927943969
49322 20 84.0601197657 87.3582428304 19.3857963289
49323 21 84.0627388826 84.9943962106 16.6829611392
49324 21 84.6804763318 88.3271290354 18.4610609531
49325 22 82.1199153183 84.3723559264 17.9138525828
49326 22 84.2781612548 84.3391492646 19.0236098657
49327 22 83.3285442675 88.139768631 20.3169859574
49328 22 85.161739078 86.7176816475 20.0616220512
49329 23 83.1416515626 86.4821481985 18.4493684665
49330 24 86.8672519354 25.3709463416 38.0270808577
49331 20 8.3567695325 41.2311027907 88.2392015366
49332 20 9.2721602731 43.4313481388 86.7929812609
49333 21 9.4474633854 41.2536459048 89.4458661481
49334 21 8.9928127386 43.043625285 85.2849311162
49335 22 9.064557836 40.392237036 87.32382015
49336 22 7.0919698779 40.8126988522 88.7908998218
49337 22 9.1561427446 44.8812164704 86.7921394018
49338 22 10.6187792715 42.9875948894 86.8934431052
49339 23 8.2844725497 42.7370950577 87.7616803861
49340 24 25.3978858306 70.6464992012 41.7874780705
49341 20 79.4092227776 40.1479108372 29.7732142957
49342 20 82.140213475 40.025560658 29.2141263591
49343 21 79.0969866169 38.6126405839 30.0036965905
49344 21 82.8564484308 38.8488288121 29.9863917104
49345 22 79.1011959121 40.5023334893 28.3944362824
49346 22 78.5691410043 40.7279517097 30.7526705086
49347 22 81.6669951595 39.5204452392 27.9449770996
49348 22 83.1724261872 41.0132483814 29.1290050571
49349 23 80.9229788557 40.3825088872 30.1542958172
49350 24 83.2984244222 39.2430059185 23.9336123556
49351 20 60.0520774527 60.7521300071 21.1587514487
49352 20 59.2631620005 61.4375903383 18.4845394661
49353 21 61.5257049169 60.283775766 20.7956295866
49354 21 59.4898091597 60.4658043966 17.2514030651
49355 22 59.6821271784 59.8898792793 22.2435335804
49356 22 60.1639511639 62.149522459 21.4770677024
49357 22 58.0872720136 62.173000972 18.1287137155
49358 22 60.4208117083 62.2936674332 18.3860419594
49359 23 59.2459506603 60.5976021049 19.8312332964
49360 24 51.2231276325 69.059033688 19.684656285
49361 20 35.6134710151 10.6158701808 17.0278427223
49362 20 36.1901444515 12.7637331892 18.8689884237
49363 21 34.9813284226 9.524231575 18.0053345975
49364 21 36.4661806739 12.1405984883 20.2291519985
49365 22 36.3304542901 9.9209997365 15.960084851
49366 22 34.5000656764 11.2045447854 16.4043993398
49367 22 37.0732545753 13.8952852671 18.6824698783
49368 22 34.796680675 13.2052414812 18.8332561848
49369 23 36.4876013092 11.6026692753 17.8631539611
49370 24 29.2100106038 8.8701538777 13.6649900521
49371 20 10.0476995207 24.0883273376 81.0615114363
49372 20 12.5200243537 24.484188162 82.3124204168
49373 21 10.2634025124 24.3348984938 79.5335372946
49374 21 13.5654636066 24.8850066008 81.1458844192
49375 22 8.6572103128 24.4673509814 81.3317481853
49376 22 10.2555170995 22.7374242121 81.3284742891
49377 22 12.9958992021 25.1324196161 83.459313037
49378 22 12.6580331109 23.07819004 82.4663870796
49379 23 11.1074597312 25.0280290962 81.850801048
49380 24 14.1495266945 25.6775701088 84.8462290211
49381 20 13.0519295976 34.2977388892 49.3552295219
49382 20 15.470871214 35.3452921437 50.2376848665
49383 21 12.9874806117 34.7949034171 47.8537271698
49384 21 15.8646741608 34.0170256722 50.9835719681
49385 22 11.6734883278 34.3157920884 49.726208735
49386 22 13.6615290761 33.0226030765 49.4219234652
49387 22 16.3449079682 35.3078761868 49.0855540123
49388 22 15.8163140365 36.2920093943 51.2144284225
49389 23 13.8833121609 35.3357510747 50.1210406207
49390 24 17.5519467392 27.1959096415 53.2285293848
49391 20 25.4002243279 11.473471976 39.7554174488
49392 20 24.7271112625 8.6849261829 39.1032573193
49393 21 25.7925306365 11.9439028026 38.3712141217
49394 21 24.5828727485 7.6049613556 40.2291970036
49395 22 26.3121447385 12.1594467766 40.6186035755
49396 22 24.0474504046 11.9377572317 40.065502192
49397 22 23.4050184239 8.9849179716 38.6978554258
49398 22 25.2609434282 7.9272437008 38.0569200834
49399 23 25.6381898141 9.8785326253 39.7218366275
49400 24 24.8892158959 6.8610385917 36.7141549285
49401 20 15.9673809627 93.5101744711 12.8057326009
49402 20 16.4634230118 93.206076281 15.6250249566
49403 21 15.9190208383 95.048438001 12.5722009056
49404 21 16.1584829627 94.4008613262 16.5340456306
49405 22 15.032917438 92.9937407254 11.9110141765
49406 22 17.3092107186 93.1272221518 12.5512666777
49407 22 15.9642006063 92.1025861709 16.3513622208
49408 22 17.8943027453 93.23301577 15.4155891376
49409 23 15.576010053 93.4277658259 14.3386643569
49410 24 21.5180381753 87.9476376921 10.2154165477
49411 20 25.6713964759 40.660790067 30.9085079693
49412 20 28.1452460091 41.8801761038 31.7338104396
49413 21 25.6612941675 40.8299101924 29.3634160273
49414 21 29.0219018803 42.2418948675 30.4491335579
49415 22 24.876120311 41.8074956074 31.3027786156
49416 22 25.0846207311 39.3791064619 31.2056842073
49417 22 27.4377102633 43.1111610872 31.9989024946
49418 22 29.0865379459 41.4808543033 32.7340325086
49419 23 27.22331683 40.7088695716 31.2706008926
49420 24 28.17920099 38.5979548208 32.2646493287
49421 20 23.2706015986 4.3872451824 38.1101442821
49422 20 21.2541621389 5.4855812445 39.7256717631
49423 21 24.2902799652 3.3621209232 38.6599717694
49424 21 20.0068076743 5.004542994 39.0094368073
49425 22 23.9585875069 5.5512743109 37.6858473304
49426 22 22.6871932899 3.701383565 37.0198432968
49427 22 20.9646561721 5.376457606 41.1330729835
49428 22 21.4658429154 6.8104148019 39.2112023551
49429 23 22.327345324 4.4511796988 39.3287819998
49430 24 18.3879127573 8.2125123105 42.9906817059
49431 20 88.3482690511 14.4013360848 67.7983965587
49432 20 87.7046210518 12.0663091058 69.2524741854
49433 21 89.1851704681 13.871900294 66.6066047901
49434 21 88.6259889915 10.8674176594 68.894777637
49435 22 88.9205461126 15.7035984662 68.0322462896
49436 22 86.9783773275 14.4488543501 67.469603837
49437 22 87.5295143733 11.8541419219 70.6116088214
49438 22 86.5433232881 11.7490872688 68.5200568282
49439 23 88.6156060635 13.368749213 68.9672710536
49440 24 83.2074101069 15.9683163616 70.7019683574
49441 20 38.8667884714 35.4190015789 81.0468256732
49442 20 37.318609713 37.1567856992 79.3807866504
49443 21 38.0747862028 34.1968093453 81.5478253367
49444 21 36.4934007826 36.1748039092 78.4623184473
49445 22 39.6307287723 35.8791243094 82.1518124216
49446 22 39.6794630562 34.927075285 80.0427684686
49447 22 36.5082736254 38.3140612474 79.6204358546
49448 22 38.4537163067 37.3932545471 78.5744727782
49449 23 37.6127926744 36.2899515167 80.6719177846
49450 24 40.8463732134 34.007671683 79.05957066
49451 20 90.0525658899 71.3043652642 45.1942944901
49452 20 88.7571319206 71.7020968865 47.6382112578
49453 21 89.0798445493 71.4184839329 44.0196205218
49454 21 87.1547000246 71.8019039517 47.3810700937
49455 22 89.9853107073 69.9353153996 45.4384336092
49456 22 91.2783126394 71.8505446957 44.6475538193
49457 22 89.0580497543 70.36952758 48.0362234998
49458 22 88.9334546177 72.6284224406 48.7030693924
49459 23 89.4203297575 72.2146954967 46.3236016106
49460 24 90.4682571716 64.7485283683 44.0419765561
49461 20 54.4200405337 87.2000668724 33.5916062418
49462 20 55.6262374456 85.9286726554 35.7525648351
49463 21 55.3352348405 87.1809847344 32.3711912661
49464 21 54.2986257534 85.7130632036 36.5942367865
49465 22 53.663676964 88.3956002367 33.4609310121
49466 22 53.5627474202 86.0805814406 33.4646726078
49467 22 55.704998035 84.7093801585 34.9866601964
49468 22 56.5925980736 86.2074215347 36.7895480818
49469 23 55.3393505958 87.1414173599 34.8198785683
49470 24 55.0308560308 78.804113214 28.0943603077
49471 20 13.0912163524 28.1430010517 54.8260036665
49472 20 15.6079071563 27.4147929897 55.6439164853
49473 21 12.5359822593 28.1202708578 56.3007536095
49474 21 15.9777638907 27.9093384006 57.0878918037
49475 22 12.7613946919 26.8906889728 54.2685994479
49476 22 12.4794748103 29.1975697982 54.106868974
49477 22 15.1118651071 26.1008381217 55.7887162387
49478 22 16.8428208153 27.5046848262 54.948073226
49479 23 14.5957119811 28.4293266622 55.0058808795
49480 24 12.6945136689 26.3071871242 52.5141652268
49481 20 85.6281289813 61.0861609627 3.2336826627
49482 20 84.5227680733 59.8370292401 5.3677490421
49483 21 84.7286493764 62.3544683632 96.5970844589
49484 21 84.8561442496 58.4107329614 5.8377963552
49485 22 85.9352204479 60.6358599209 95.4563654716
49486 22 86.8358225316 61.4089671312 3.9076109657
49487 22 85.4217799787 60.6117266286 6.1388919147
49488 22 83.2028266522 59.9872543073 5.8182465177
49489 23 84.7433351395 59.9965147566 3.8490100939
49490 24 40.9705941905 43.9229002731 73.1762855901
49491 20 55.8462432725 77.6463699662 23.3551616612
49492 20 57.1355971488 77.9395239889 25.8818612337
49493 21 56.9545039172 76.8572674343 22.6760620427
49494 21 58.5669445817 78.5164780449 25.9282570203
49495 22 55.2719083334 78.4705499578 22.3572780895
49496 22 54.9183275403 76.7398748694 23.9323027971
49497 22 56.414123959 78.5537069221 26.9788035514
49498 22 57.2941472663 76.5746834194 26.0708118162
49499 23 56.5867050604 78.4680243807 24.4608967288
49500 24 53.2217945125 76.6743034048 24.615424631
49501 20 14.2207105526 15.8661707991 23.8845039121
49502 20 12.7332391843 15.2507718473 21.5794938846
49503 21 14.6703568152 14.4586760388 24.3261992838
49504 21 11.6871357981 16.3031891762 21.1691343768
49505 22 13.9611373513 16.5789447789 25.0723670052
49506 22 15.3755540637 16.363335327 23.2114843866
49507 22 13.9194185593 15.5144608038 20.8329520036
49508 22 12.1466785813 13.9740458565 21.398400653
49509 23 12.8703686665 15.6020141431 23.1038199705
49510 24 15.9864631007 23.1760327674 14.4597985175
49511 20 27.0357693458 69.8798462435 51.4015082072
49512 20 26.4035332134 72.4978407508 52.1894882605
49513 21 26.1363832808 69.0609980257 52.38975717
49514 21 27.4549216035 73.5340756784 51.6579945921
49515 22 28.1459943282 69.0629623635 51.1323939369
49516 22 26.1427439935 70.1163150913 50.3046594294
49517 22 25.2785289279 72.5799687763 51.2632562463
49518 22 26.0424692289 72.9157769899 53.4731362033
49519 23 27.2446439255 71.1522693992 52.2527212277
49520 24 28.9118989669 74.9368934441 41.315101614
49521 20 93.8892916548 15.7833879944 76.4788985697
49522 20 92.7825276484 16.1578281835 78.9976472512
49523 21 94.0785228571 14.2750572301 76.1812546322
49524 21 92.1026797108 17.5009674979 78.6647387743
49525 22 94.9807151189 16.3805466672 75.8532102297
49526 22 92.5686019146 16.2037562706 76.1090418353
49527 22 91.7332906758 15.1215932559 78.9128065689
49528 22 93.3844568558 16.3179684792 80.2486497717
49529 23 93.9973302305 15.9396931545 78.0303512244
49530 24 94.1812296589 18.4738759183 84.2737648798
49531 20 88.8123204571 18.7032357344 76.3025758726
49532 20 87.998149234 17.19499851 78.4752269524
49533 21 88.5707069152 20.2019318898 76.7825290603
49534 21 87.9076026182 18.2991433994 79.4839611516
49535 22 88.534319897 18.7875151774 74.8974196095
49536 22 90.1852989972 18.4215871185 76.7053586491
49537 22 86.9039195732 16.3223648542 78.6825113539
49538 22 89.288625589 16.5994300153 78.7707194724
49539 23 87.8076084733 17.8370563311 77.0908365455
49540 24 93.6408497007 15.2930518786 71.8553152302
49541 20 75.5961626055 76.525574976 16.5433060799
49542 20 74.1845520899 78.0747826732 14.6975769239
49543 21 76.4150108232 77.4036339455 17.5237912316
49544 21 72.9881768666 77.4199098868 14.0246509382
49545 22 76.4310061448 76.0520760408 15.5085677906
49546 22 75.1380977526 75.5101059045 17.4475562194
49547 22 73.8113279193 79.4301757135 14.7292869474
49548 22 75.2784075911 77.7651656295 13.8042709518
49549 23 74.3638680635 77.4234644027 16.1068489422
49550 24 75.9281356835 74.0334851637 18.2852059554
49551 20 11.5591545174 30.2093908138 50.4602162704
49552 20 13.8487024007 28.8401538694 51.0729961052
49553 21 11.1235298847 29.3020538579 49.2792751293
49554 21 14.8447151745 28.4219370107 49.9804501625
49555 22 11.2439344341 31.5026733656 50.0430283505
49556 22 10.8339303779 29.7119456662 51.5900846302
49557 22 14.620967752 29.1166577913 52.2383160843
49558 22 12.9877612314 27.7250648126 51.2216309942
49559 23 13.1309708066 30.0317585582 50.5439344741
49560 24 18.6598332243 27.9678943732 50.3099912033
49561 20 22.9392832998 6.0568013051 59.2454829608
49562 20 24.7811773203 7.8319171965 58.2999817289
49563 21 21.8008092699 5.9182126006 58.2229048576
49564 21 23.8435334393 8.5259644898 57.2647757401
49565 22 22.3946005066 7.1173753127 60.0721885295
49566 22 23.1542379725 4.7797105087 59.7981166449
49567 22 24.5491983872 8.7158878872 59.4669854259
49568 22 26.1345124829 7.8350040129 57.769797619
49569 23 24.2236795618 6.3839757867 58.4691018543
49570 24 28.0220539709 96.1048775453 58.5312123428
49571 20 54.5632501089 88.3959743962 96.5606039009
49572 20 55.8770178971 86.10724031 3.8555504032
49573 21 53.8985556338 88.9939749281 4.2103893079
49574 21 55.6021976933 85.788269277 5.4376420496
49575 22 53.5328146546 87.5818031731 96.0273329745
49576 22 54.9105637292 89.5410897585 95.7786104007
49577 22 54.824694108 85.3808095059 3.2436345028
49578 22 57.1744162041 85.6575940474 3.6322622616
49579 23 55.7648635661 87.6281989597 3.6276731944
49580 24 57.3841326428 4.0360150467 91.6439600786
49581 20 88.6193476592 45.4987668397 33.7186334156
49582 20 90.7757227978 47.2569426565 32.9867772978
49583 21 87.2814465788 45.6978197307 32.8126995581
49584 21 91.8758454718 46.4293016889 33.6838365756
49585 22 88.0787806212 45.1969136071 35.0234213741
49586 22 89.3080818866 44.389664336 33.1782534574
49587 22 90.9208031708 47.1280446849 31.5968680372
49588 22 91.1098472933 48.5732360218 33.5297763729
49589 23 89.3939515078 46.9116869138 33.5953478375
49590 24 89.5688711065 42.6087583254 32.6365639408
49591 20 81.1213769674 57.7070323512 82.5554370572
49592 20 78.9732333393 56.3239515028 83.8885676031
49593 21 81.5849606739 57.0905109207 81.204253312
49594 21 77.8570218038 56.6299204907 82.7921865247
49595 22 82.2900643825 58.0262840038 83.2770037868
49596 22 80.2349929474 58.7785318182 82.2055978597
49597 22 78.7072058855 54.954153319 84.3476613948
49598 22 78.7681003554 57.2408295277 84.9413590916
49599 23 80.2958874173 56.4908266707 83.1229435841
49600 24 75.9344028562 65.2026645457 81.8540749442
49601 20 91.9861290049 87.5821773327 23.8413820217
49602 20 94.6961667663 87.6187514306 24.8399203727
49603 21 91.9937057362 88.1930863697 22.3736475707
49604 21 95.6806741334 88.1098358655 23.6848897818
49605 22 90.7062226577 88.0015166701 24.3221770685
49606 22 92.2036092546 86.1483043227 23.6090289291
49607 22 95.1393587763 88.2214289571 26.0575291515
49608 22 94.8680930885 86.2238845557 24.8110165459
49609 23 93.2267485973 88.1414523491 24.5920396579
49610 24 68.1441200008 37.1757742973 10.3251014254
49611 20 67.6691244274 37.813061584 96.7611534301
49612 20 69.8858327966 39.4134356024 4.1584634428
49613 21 66.214766181 38.3797262519 3.397210543
49614 21 71.0825821794 39.4087586077 96.7601244913
49615 22 67.7991448778 36.8926290431 4.2767745695
49616 22 67.6561223824 37.2613632988 95.4330740384
49617 22 69.901079799 40.7629356294 4.676077662
49618 22 70.0442893742 38.4581126817 5.1736631194
49619 23 68.609761585 39.0597612693 3.2661633053
49620 24 19.540417771 15.2995061312 44.2412165268
49621 20 33.3658009416 40.6158909186 78.2437157188
49622 20 32.9159675992 43.1726167965 77.1215176302
49623 21 32.7148568307 39.4000593977 77.5446921032
49624 21 32.0568972278 43.1573697941 75.7934382385
49625 22 32.5509749393 40.9256950421 79.2936074707
49626 22 34.5946345075 40.0949672581 78.7174952736
49627 22 31.9320214715 43.3887874878 78.1791731931
49628 22 33.9127286922 44.1627365571 76.9424822762
49629 23 33.5743013617 41.7994511767 77.1186178935
49630 24 41.2206263228 36.8945933809 82.133197983
49631 20 57.1515924704 74.9277265347 67.8422667682
49632 20 54.6470618524 73.8325614749 67.1859908834
49633 21 58.0083243445 73.7116143941 67.5964439311
49634 21 53.3623849708 74.615490374 67.4152571596
49635 22 57.7823319645 75.6333914826 68.989533548
49636 22 57.168429651 75.7214125213 66.6364440158
49637 22 54.7761469039 74.0577119958 65.7721354104
49638 22 54.3483889761 72.4268439725 67.4303170822
49639 23 55.7339954016 74.3811729436 68.1593670033
49640 24 55.2058691694 74.3559171727 64.0088148995
49641 20 60.2240973147 48.1164807274 7.6287672582
49642 20 62.3547489829 49.9681964366 7.8041264944
49643 21 60.4442902213 46.8090736519 8.419731234
49644 21 61.8124982269 51.0938555012 6.7620546776
49645 22 59.6869912528 47.6549548985 6.4361991086
49646 22 59.3551117147 48.926723275 8.3857668991
49647 22 61.9412091188 50.4441274089 9.0998130214
49648 22 63.7773036659 50.0063607127 7.6882212138
49649 23 61.7019340741 48.6404912044 7.3739832994
49650 24 61.3407765497 51.0434374993 10.8987535233
49651 20 10.1421935199 61.2394728463 46.8703422814
49652 20 7.9433325622 59.9417003797 45.6581588163
49653 21 10.8982390539 59.8359067614 47.0697693319
49654 21 6.643539634 60.5928315704 46.3248176292
49655 22 9.3937714872 61.4732290373 48.0229408351
49656 22 11.1793170765 62.1199638531 46.4373461197
49657 22 7.5145737576 59.7139307418 44.3146453423
49658 22 8.1745070522 58.8181927325 46.4965568715
49659 23 9.0951640888 60.9663363606 45.7242915202
49660 24 8.0827631258 62.0960176406 49.1024847328
49661 20 48.5804385935 29.6249535663 14.129976857
49662 20 49.3537328837 29.8151201675 16.8950160752
49663 21 48.7961415853 28.0776166669 14.0866678869
49664 21 49.8916808046 28.3807794581 16.7924963532
49665 22 49.7095586342 30.2790780336 13.5402078357
49666 22 47.37555124 29.8479526697 13.42347005
49667 22 50.5093247139 30.6447254729 16.8606869347
49668 22 48.6691144115 29.9145530731 18.1941916402
49669 23 48.3147852992 29.9281163575 15.657670379
49670 24 52.1950071141 38.4246254002 73.3429736783