ITEM: TIMESTEP
19500000
ITEM: NUMBER OF ATOMS
4000
ITEM: BOX BOUNDS pp pp pp
3.23005382 96.76994618
3.23005382 96.76994618
3.23005382 96.76994618
ITEM: ATOMS id type x y z
49081 20 39.3528217521 35.6115066774 46.4114355695
49082 20 39.3575922866 38.1260460638 47.7778663171
49083 21 40.6524650166 35.3901912921 45.5273900468
49084 21 40.7280452496 38.7621173319 48.1581059795
49085 22 38.3058297369 36.1270050242 45.5650866234
49086 22 38.9801588209 34.3391770615 46.9256243578
49087 22 38.9969960016 38.7174052633 46.5639991339
49088 22 38.4913193435 38.3878642225 48.8896814777
49089 23 39.7270748614 36.6507348815 47.5341013576
49090 24 38.3477356087 41.7758791238 45.7109153156
49091 20 65.853234497 50.2208476858 48.7333763175
49092 20 67.1569935168 48.3994389018 47.0104650402
49093 21 65.3262307435 51.5498624765 48.0161124229
49094 21 68.0307496513 47.3385094427 47.8163112128
49095 22 66.2631263054 50.595287875 50.0006547792
49096 22 64.7058741774 49.3563520007 48.716445597
49097 22 65.927131012 47.6717920791 46.8064545349
49098 22 67.9011033605 48.6204736675 45.8272789417
49099 23 67.0700014169 49.6817772862 47.9227596103
49100 24 64.0364091677 47.3522598068 52.9765329148
49101 20 7.9190028362 11.906243642 77.4194421874
49102 20 10.2899397799 11.1326780861 78.6064634214
49103 21 8.2696838927 10.8881741615 76.2678725725
49104 21 11.170140813 10.7071931778 77.3897900415
49105 22 7.4892992787 13.0935548497 76.8125553657
49106 22 7.0216559409 11.2477321537 78.3940343258
49107 22 11.2297070165 11.6010790971 79.569643693
49108 22 9.665009113 9.9343665871 79.0549872053
49109 23 9.2839462995 12.2282827834 78.1559752998
49110 24 14.3257558517 17.2759105169 75.7515323667
49111 20 80.6580738805 88.3158107085 23.2055913734
49112 20 81.4150922294 90.863276137 24.2813936754
49113 21 79.6645866838 87.6699177517 24.1193825818
49114 21 81.1172612121 90.6580496132 25.8349042077
49115 22 81.9412541239 87.7941387288 23.635220099
49116 22 80.2615582768 87.9781316971 21.8420603624
49117 22 82.7881643094 90.6305488848 24.0805635265
49118 22 80.9181147813 92.1733958694 24.0448312876
49119 23 80.496062787 89.8708178791 23.4214814449
49120 24 83.7692107004 88.8647963367 23.9917941686
49121 20 56.9143753033 48.4995265866 51.8114935554
49122 20 58.0056116876 47.1373051342 49.5190178735
49123 21 55.8016247438 49.5174276953 51.3700788034
49124 21 57.2514930754 47.2882785205 48.1485649105
49125 22 58.0901717503 49.2624379487 51.9434783435
49126 22 56.3840976535 47.9704649554 53.0390175629
49127 22 59.0245417351 48.1732594421 49.4005963697
49128 22 58.4256058043 45.7725581047 49.595065806
49129 23 56.8906161707 47.3837827506 50.6367260473
49130 24 58.4915514284 44.1806026766 50.3099912033
49131 20 91.4445330281 47.3626427349 25.862498476
49132 20 92.1724604705 44.6743062285 25.8408907608
49133 21 91.3949568852 47.4432741221 24.3173129941
49134 21 91.1816859306 44.0796731327 26.84092575
49135 22 92.0702213681 48.5672494687 26.3026036695
49136 22 90.0974650383 47.2155980241 26.2995168531
49137 22 91.5913906591 44.4919969783 24.5551849403
49138 22 93.3604171034 43.9589131317 25.9975700805
49139 23 92.3452286517 46.1573812218 26.3053163264
49140 24 84.0913620897 46.9030812437 26.0686603987
49141 20 13.7039961872 71.7626171969 69.1022491183
49142 20 14.110894719 74.5196119843 69.5373966975
49143 21 12.5315391144 71.6447569325 67.9827636865
49144 21 13.6807982939 75.0165894324 68.1488905353
49145 22 13.4898833736 70.6344325551 69.9370926576
49146 22 14.9619206597 71.6377414406 68.3471951071
49147 22 13.6562908421 75.555753372 70.3854293617
49148 22 15.5517832209 74.4033418981 69.525704211
49149 23 13.3925083457 73.1414887502 69.6994077911
49150 24 16.9759280821 73.5580218908 70.4203197415
49151 20 29.5092447195 34.1592998485 94.7017791599
49152 20 31.3840647821 32.1505306601 94.1800136403
49153 21 29.2998089005 35.134733846 93.515506245
49154 21 30.8251639252 31.3426266098 95.3356054705
49155 22 29.2844683582 34.96617496 95.8511038173
49156 22 28.487695555 33.1674028299 94.5432290423
49157 22 30.817493654 31.5211007244 93.0386398737
49158 22 32.7630298752 31.8897414402 94.2584000701
49159 23 31.0211299997 33.6410888448 94.6203994535
49160 24 31.5013638071 30.7591247612 91.4645505651
49161 20 26.100557502 72.4532222222 46.5855133092
49162 20 23.524843026 73.6728888787 46.6096466014
49163 21 25.8918700022 71.5076274503 47.7118271531
49164 21 22.9853049269 72.6033537494 47.731002831
49165 22 26.8118348435 73.5123744234 47.1740663119
49166 22 26.9037845577 71.6385832996 45.7568434027
49167 22 24.0039543547 74.7036049526 47.441590404
49168 22 22.4095668894 73.8460312194 45.7970655565
49169 23 24.718879752 72.9362622263 45.9548673549
49170 24 86.5844808408 35.9718223428 24.6729516648
49171 20 74.834467262 91.555003641 44.1364518474
49172 20 74.1299247927 88.9817212022 44.706016252
49173 21 75.7491938694 91.4885903174 42.82202928
49174 21 74.7570162311 88.1761556492 43.4833563189
49175 22 75.3535201247 92.6383826743 44.8520320239
49176 22 73.5290245242 91.7576110479 43.6443384737
49177 22 74.4264462515 88.1321918998 45.7633911952
49178 22 72.7354320774 89.2188448293 44.4293252504
49179 23 75.0096674804 90.2092452096 44.8355690029
49180 24 71.8152801563 90.6533726185 43.5004741192
49181 20 93.0608088282 15.6831132298 78.5744727782
49182 20 93.1076723143 15.2576002594 75.7302052712
49183 21 94.2996511626 16.4772669159 78.977910334
49184 21 93.8903205937 16.2610962247 74.9260428166
49185 22 93.4014811162 14.3144375248 78.7767060255
49186 22 92.0814461552 16.0076966563 79.5510292544
49187 22 93.8765702295 14.0919996607 75.8697667906
49188 22 92.0341149697 15.0447034644 74.7877908557
49189 23 92.7069474154 16.0671880278 77.0553849263
49190 24 96.5459181378 13.5813653883 84.7152731718
49191 20 94.918043391 5.4889299726 32.1843921011
49192 20 92.2421476903 6.1880471281 32.5574291918
49193 21 94.6129162621 4.0760819242 32.7918401621
49194 21 92.3420482953 7.6078798003 33.225584643
49195 22 95.4998615215 6.2756098214 33.2189433106
49196 22 95.8428723068 5.2358110239 31.1658362132
49197 22 91.0357636985 6.2363043586 31.8065844759
49198 22 92.1992128797 5.2632182124 33.6698991317
49199 23 93.526824572 6.0723944052 31.6107119413
49200 24 86.8138406568 3.8689406388 27.2525948163
49201 20 42.1031752072 66.8894694246 79.6624352663
49202 20 43.3029178666 69.4583554885 79.1827626982
49203 21 40.7195331194 67.1044240972 80.3626749005
49204 21 44.7319268022 69.3930646436 78.45128074
49205 22 42.6409360483 65.7031029698 80.2975711354
49206 22 41.7437949407 66.6410274705 78.3001202739
49207 22 42.4994101912 69.7010915092 78.0953614495
49208 22 43.4011347536 70.5675515321 80.0749461916
49209 23 43.0616784842 68.090053943 80.0209736737
49210 24 42.9171593505 71.1920238535 81.8071179183
49211 20 39.9988082487 74.7633769438 75.2592319132
49212 20 42.2042918308 73.3082703782 76.260482921
49213 21 40.6936225692 76.1780742758 74.8939586335
49214 21 43.6646366303 73.8495857353 75.9028799125
49215 22 39.4490743013 74.9656101911 76.5642069515
49216 22 38.9777267837 74.5923860206 74.342634508
49217 22 41.8428536867 73.7453822952 77.5879075335
49218 22 42.5102608187 71.9269667878 76.2965893195
49219 23 41.2043503815 73.7071244793 75.0982497584
49220 24 37.9530908028 74.652812791 77.5937070068
49221 20 96.085140628 60.5429748078 7.5385386781
49222 20 95.4379381128 57.9579998824 8.2075640502
49223 21 3.846015882 61.2681895932 8.1358002448
49224 21 96.595213661 57.080689232 8.7582895204
49225 22 95.0671459794 61.5590051186 7.4752121709
49226 22 96.497090314 60.0488970963 6.2269971393
49227 22 94.3226619762 57.4651381896 8.8314096543
49228 22 95.4595458279 57.7409873321 6.8102932001
49229 23 95.7546641883 59.4187188415 8.5602936303
49230 24 95.0565759716 58.9763686905 5.4341904276
49231 20 87.1869712875 91.5644511701 19.09806762
49232 20 87.7184649559 93.6038079034 20.9267725157
49233 21 88.7392658012 91.1785991141 18.9739401829
49234 21 89.2490582145 93.2847433305 21.1631478237
49235 22 86.7118821742 91.3211539101 17.7586699013
49236 22 86.6189970611 90.7337233861 20.1185878457
49237 22 87.6234284252 95.0218726715 20.9075032979
49238 22 86.9824930828 92.9881283319 21.9557113316
49239 23 87.3254103282 93.0624925463 19.5264803271
49240 24 60.0473069181 81.0009911259 56.1949599912
49241 20 72.582868513 84.2200729816 45.7804154556
49242 20 70.9674345719 85.6992192995 44.0692902047
49243 21 73.5621376461 83.0450248538 45.3433970785
49244 21 71.8369814113 86.0038787289 42.8181941444
49245 22 72.0828042484 83.781745046 47.0331016941
49246 22 73.4642013788 85.3705201177 45.8631982604
49247 22 69.6570342199 85.4941798554 43.5683840811
49248 22 71.0030732709 86.8728643289 44.8856128453
49249 23 71.4833070783 84.3320402328 44.7064839514
49250 24 70.0005127046 88.3619258754 44.7114415657
49251 20 49.5763578275 56.6156088871 72.7314098621
49252 20 49.6116223669 59.281869979 73.9075804686
49253 21 50.8030399759 56.0705519344 72.013678268
49254 21 50.8696403793 60.0975378403 73.2879722216
49255 22 48.6302018163 57.0088505946 71.7394193036
49256 22 49.0824671958 55.5384034867 73.4749584664
49257 22 48.4509793825 59.6115980995 73.0904159689
49258 22 49.5699971148 59.6608000829 75.3182555853
49259 23 50.0805378473 57.7383682151 73.7556716834
49260 24 46.6331251144 60.060496043 72.517671208
49261 20 48.0133062261 11.7681132829 66.4208345639
49262 20 45.8976209407 10.8702051482 64.6953041695
49263 21 47.5194155945 11.5093071087 67.7967128406
49264 21 44.7866476392 9.9537199908 65.4322114415
49265 22 47.6349373616 13.1037506979 66.1331993949
49266 22 49.4626133184 11.5550761781 66.4126965932
49267 22 45.2919501377 12.1662003568 64.7134509086
49268 22 45.8751713666 10.2260800954 63.4312996041
49269 23 47.2221458166 10.6791218561 65.5450205517
49270 24 39.9726170789 19.0651415779 69.77854254
49271 20 13.4482581215 19.8828673169 82.0343263168
49272 20 10.6629955786 20.4342849824 82.8614060451
49273 21 13.9187637801 18.6415929453 82.9340865414
49274 21 10.4953907995 20.101844205 84.3675853918
49275 22 14.5795295797 20.8211659772 81.960336262
49276 22 13.0933677699 19.2931918355 80.7881878708
49277 22 9.9690698871 21.6409495939 82.7123969965
49278 22 10.1908716799 19.283183067 82.1910056365
49279 23 12.2168522085 20.6295027378 82.7382140068
49280 24 13.0334086989 18.2777227641 79.2639553248
49281 20 23.1838901183 77.2904506758 9.4534031685
49282 20 24.3079590048 79.8425930989 9.3952587715
49283 21 21.630379586 77.1576240286 9.1565356122
49284 21 25.7518407833 79.1621839219 9.1068378674
49285 22 23.4135305541 76.3383081115 10.5272879028
49286 22 23.8763659415 77.0850370722 8.2732290546
49287 22 23.722960518 80.3478020576 8.1936078982
49288 22 24.5965295728 80.8977230848 10.35592282
49289 23 23.4001543495 78.7504213157 10.0732826812
49290 24 23.1788389641 80.1854168044 6.3710859895
49291 20 28.2315833298 14.5930928641 54.1914290367
49292 20 29.725228331 16.5177696893 55.7013499792
49293 21 26.761042682 14.5056330647 54.844711645
49294 21 31.2710685921 16.4468664509 55.4153985283
49295 22 28.5295078869 13.2580915203 53.7923878559
49296 22 28.1415979533 15.4460831425 53.0376144645
49297 22 29.0891570629 17.6518473443 55.0682719877
49298 22 29.6233633882 16.677909985 57.1191341277
49299 23 29.1461228574 15.0906315516 55.4274651744
49300 24 30.288338483 12.418084579 53.220484954
49301 20 59.2164855942 34.1347923967 72.7402026119
49302 20 57.7431387496 34.1404983301 70.3350113597
49303 21 60.1058628908 32.7967977764 72.8037161988
49304 21 57.9628639568 32.8786451822 69.4206589119
49305 22 58.9593444301 34.230109547 74.1220674418
49306 22 60.1277512256 35.0970372694 72.1517431491
49307 22 56.3747436643 34.4283205789 70.1336199714
49308 22 58.6193269214 35.2104076189 69.9196006977
49309 23 58.0483594184 33.6959967616 71.8262243237
49310 24 60.3454185551 35.6032751669 70.3670955428
49311 20 56.8501133973 92.4965761975 9.1207472493
49312 20 55.1172868913 94.472232264 10.1155533586
49313 21 58.2111188311 92.5858132548 9.8968851522
49314 21 54.2173395869 94.4811185538 8.8869817043
49315 22 57.093691277 93.3226269869 8.0432518753
49316 22 56.5504115822 91.1467020109 8.7529951625
49317 22 54.3507274734 94.8066373792 11.2448324171
49318 22 56.0121830415 95.4996744417 9.8007729128
49319 23 55.7734692362 93.0638956447 10.116039766
49320 24 56.1632499677 87.8743024165 4.3135076852
49321 20 77.7055807181 92.8432350386 24.1097479729
49322 20 75.2888840591 93.3048544074 25.5454917807
49323 21 78.1556946801 94.2322089002 23.7291341509
49324 21 74.3707900156 94.6101100654 25.3303500283
49325 22 78.1820729298 92.1009959927 23.0098123787
49326 22 78.3405295074 92.6189263767 25.4162196495
49327 22 74.3648034624 92.293688171 25.8182541069
49328 22 76.0371096581 93.6498295304 26.7529982512
49329 23 76.1710587839 93.065298743 24.2789616382
49330 24 92.206789611 27.2922557307 34.3950203772
49331 20 15.3833178748 26.2597623988 86.8957816026
49332 20 15.6753494187 28.7732728464 85.7077314297
49333 21 16.7280473673 25.6807504651 87.2714378103
49334 21 17.1631949466 29.2014984736 85.4559220395
49335 22 15.0218797307 25.7587627353 85.6117595001
49336 22 14.508906961 25.896359917 87.939032022
49337 22 15.3559106863 28.126257411 84.4853521163
49338 22 15.0415231081 29.9713317878 85.9352204479
49339 23 15.667304988 27.8442346355 86.9623820059
49340 24 34.332629269 67.8144854202 46.1791760168
49341 20 85.8486960475 50.7496286974 27.2531560557
49342 20 86.4477255181 48.0356622604 27.8264620559
49343 21 85.2022418514 51.3088101739 28.5601889716
49344 21 86.7077664189 47.5688046577 29.3803467478
49345 22 84.6908592598 50.4218649145 26.473407513
49346 22 86.6894326 51.7809060106 26.7099699007
49347 22 85.2050480481 47.4901376082 27.4019780244
49348 22 87.5216570223 47.3884597452 27.1500750943
49349 23 86.7107596955 49.5740193302 27.8187917848
49350 24 85.7575881923 46.1837594715 23.6321332825
49351 20 57.4370762218 64.4450849575 19.1860886588
49352 20 55.7819813664 62.1415715682 19.720294984
49353 21 57.6846763169 64.2780227097 17.6257497143
49354 21 56.0683069769 62.0283882984 21.2194588389
49355 22 58.5693766189 63.9581162778 19.8303914373
49356 22 57.2749715884 65.858472731 19.36746251
49357 22 54.4542761343 61.7007180555 19.4799910006
49358 22 56.7244893218 61.2703410108 19.1301518031
49359 23 56.0301427009 63.7359590335 19.4428556633
49360 24 48.1830811308 66.6847106002 22.620218727
49361 20 17.2681467058 4.7311913666 29.3792242691
49362 20 17.6405290173 7.3888000184 30.2284729519
49363 21 17.6380034402 3.9877054339 30.6935532967
49364 21 18.9139811119 7.7006058956 31.0296421299
49365 22 17.6167698846 3.8646639949 28.3698352907
49366 22 15.8626162832 4.8160975269 29.5871634498
49367 22 17.545211867 8.5953991519 29.3907296759
49368 22 16.619728172 7.2377424462 31.2111095211
49369 23 18.0190849617 6.0749480443 29.4611652148
49370 24 11.1401893395 6.0870988763 27.1654156366
49371 20 6.3258688055 16.572771146 78.200126129
49372 20 8.8850734905 16.7316954231 79.0289831152
49373 21 5.7861623346 17.9908359142 77.8664693329
49374 21 9.0520421984 17.7124611945 77.8392492243
49375 22 5.1906499639 15.8978808226 78.652859208
49376 22 6.8246235116 16.0041421404 76.9979514324
49377 22 9.7527308241 17.2927476975 80.0195705753
49378 22 9.3049834213 15.4336423368 78.6390153039
49379 23 7.3973495645 16.8078368955 79.2830374628
49380 24 10.1400795184 17.4264162037 81.8149752692
49381 20 3.6350432026 48.473148337 63.4103466682
49382 20 5.6230755323 46.8267526916 62.3706507646
49383 21 96.2041233711 48.9737738409 62.3406244591
49384 21 6.7630087845 46.8667877655 63.5135211694
49385 22 3.8307763627 49.6003975798 64.3367657621
49386 22 96.4482624901 47.3789186762 63.9442723738
49387 22 4.8250025246 45.6978197307 62.6843835636
49388 22 6.316795436 46.7556623734 61.1161872681
49389 23 4.8931743982 48.1870098063 62.6050617348
49390 24 93.819604435 40.6979254042 66.5304633177
49391 20 31.7700103779 16.7686436806 51.6608943287
49392 20 32.55032016 14.4492285097 52.826869087
49393 21 31.9626090163 16.3642707259 50.1361005434
49394 21 32.8356168317 14.4544667436 54.375422005
49395 22 32.0701798925 18.1486377126 51.5862494946
49396 22 30.3854328912 16.5644460956 51.9786493431
49397 22 31.232904316 13.907538993 52.7489503567
49398 22 33.5049883014 13.5535840403 52.2626364563
49399 23 32.7565756227 15.9407220933 52.507056195
49400 24 32.6577039564 11.981823875 51.1525050137
49401 20 22.5060065184 84.6126599098 7.1086854567
49402 20 21.1261060263 82.3645221369 6.2153420687
49403 21 23.5289587812 84.2306429894 8.1923170477
49404 21 20.4409263148 82.6775066167 4.8900501658
49405 22 21.3592074381 84.9829843437 7.853150752
49406 22 23.1983888016 85.644872622 6.3983060982
49407 22 21.5575120099 80.9968753707 6.0339962794
49408 22 20.1567521218 82.4749927497 7.1863142134
49409 23 22.3251003666 83.3570739347 6.2458080116
49410 24 23.6648722448 77.3824939299 11.942742908
49411 20 39.2945463992 44.2348558142 43.5038415554
49412 20 40.9942597832 42.0643561518 43.9723828762
49413 21 39.8623335458 45.534124919 43.9547973764
49414 21 42.3691091211 42.368360802 44.7236952916
49415 22 38.5433275236 43.7671563524 44.6140665378
49416 22 38.3525996831 44.4854491858 42.4412283782
49417 22 40.0295828733 41.7120849172 44.9720437058
49418 22 41.4127572617 41.080503564 42.9926460436
49419 23 40.5393752867 43.3073142415 43.1288401269
49420 24 40.8841633299 42.828951232 41.3185625901
49421 20 32.8637723393 9.8095469547 53.5050333066
49422 20 30.788870447 10.4201473101 55.4707741445
49423 21 34.1304895617 10.5109277756 54.1102364102
49424 21 29.5232757034 9.8248874971 55.0803386338
49425 22 32.2641816293 10.690449537 52.5713181011
49426 22 33.3831058217 8.6258650948 52.8721423949
49427 22 30.761089099 10.3533691809 56.8995024605
49428 22 30.603755 11.7300519007 54.9565853562
49429 23 31.9435268783 9.5057574463 54.7800755794
49430 24 28.5875026202 14.2934845889 57.1664653132
49431 20 89.7420134473 9.9800982405 59.2634426202
49432 20 87.5956470772 10.5359216348 57.3816070657
49433 21 89.0389676163 9.1274821216 60.4032262086
49434 21 86.3944077795 9.5429956774 57.5841209326
49435 22 89.8016918986 11.3107219173 59.8089672724
49436 22 91.0279063476 9.3948471959 59.1466112946
49437 22 87.2781726825 11.8102062345 58.0023377914
49438 22 87.7680410988 10.6840327004 55.9969360391
49439 23 88.8305607361 9.7947957137 57.9736210444
49440 24 84.09978068 14.7946713321 60.3926562007
49441 20 16.4451827328 38.0282968763 84.7988978355
49442 20 17.8486552778 39.2938916199 82.7092166402
49443 21 14.9881118295 38.6238653709 85.056600239
49444 21 16.6642531607 39.4720851149 81.7698890411
49445 22 16.9775182602 37.8977151866 86.1508298998
49446 22 16.3245162717 36.8133072144 83.997260958
49447 22 18.5721863452 40.5366626298 82.5032417972
49448 22 18.6230720466 38.1395158083 82.3533908897
49449 23 17.165439904 39.2737805431 84.1100700682
49450 24 17.0154019167 35.1194868436 84.4409206675
49451 20 6.3226884492 71.1166307002 42.103362287
49452 20 5.7732631834 73.7042247426 43.0246366868
49453 21 4.9071211961 70.6812960412 41.6816844522
49454 21 4.2711995919 74.275659945 42.7061333533
49455 22 6.4322049552 70.5687675507 43.4117983013
49456 22 7.2450104958 70.6079607656 41.1798429297
49457 22 5.6532702095 73.0993957986 44.2839642576
49458 22 6.5624686093 74.8133272463 42.9095826192
49459 23 6.1059658726 72.6435759031 41.9889629986
49460 24 8.0168175017 67.8091536463 45.3111258157
49461 20 63.7629920624 83.949462073 21.1356470953
49462 20 62.945546943 81.2836686806 21.1736242916
49463 21 62.6341526414 84.7809381762 21.6005403604
49464 21 64.4130007744 80.7847268948 21.4019551689
49465 22 64.4192679472 84.8013298727 20.2044574669
49466 22 64.649656702 83.6630429226 22.2553196069
49467 22 62.4517498513 81.2626222049 22.5087191753
49468 22 62.4158305326 80.269228548 20.3392484518
49469 23 63.1734101208 82.7024817679 20.5514904675
49470 24 53.9310139764 80.3553787889 24.8384237344
49471 20 95.1070875135 42.3416083928 71.0633129616
49472 20 95.5209079973 40.5857710733 68.9900947873
49473 21 96.2550090725 43.3146103531 70.6600624856
49474 21 95.7625215392 39.3632982201 69.912398126
49475 22 95.6037843419 41.5353880605 72.163996875
49476 22 94.1070525243 43.3110558372 71.4781623842
49477 22 94.8399375809 40.0590479394 67.8569525313
49478 22 3.3012968888 41.1261510315 68.7692471015
49479 23 94.6074909484 41.6329501683 69.8066045077
49480 24 93.0740914929 43.9325348821 69.8977123629
49481 20 93.3300166384 60.9409870498 4.446661722
49482 20 92.3016390618 58.5135333031 5.6221681953
49483 21 92.206789611 61.8880784599 5.0467294855
49484 21 90.9854392364 59.2271491419 5.9774514145
49485 22 92.8139570523 60.5545737544 96.7019426782
49486 22 94.5327525744 61.6395429659 4.4459134029
49487 22 92.0219547837 57.7654947839 4.4192545335
49488 22 92.5871228133 57.7316333429 6.7739248899
49489 23 93.3523726727 59.665944777 5.4315900186
49490 24 29.3919456945 39.5434560527 79.7941394347
49491 20 50.2444197387 80.3539756905 27.0061171999
49492 20 51.0165915501 80.0217219928 24.3350855736
49493 21 48.7692020963 80.8693804974 26.8997623423
49494 21 50.1563051601 80.6856681488 23.2488068036
49495 22 50.77338783 80.9912629771 28.1570320355
49496 22 50.136381163 78.9313274676 27.0917997413
49497 22 52.3669334363 80.0789684069 23.8877778083
49498 22 50.5080151554 78.6913976437 24.3209610499
49499 23 50.7460741814 80.8641422634 25.6277133461
49500 24 51.2407131322 77.55619751 27.7531267803
49501 20 15.729883176 32.5240354503 28.7424982218
49502 20 15.1526485002 30.6313492682 30.8152486966
49503 21 16.7102747878 33.6311736162 29.3043923552
49504 21 16.1941216617 30.9370376365 31.9089171181
49505 22 14.8434991559 33.3430707478 28.0186865347
49506 22 16.5327360721 31.6105248615 28.0575055901
49507 22 13.9446743303 30.3772013807 31.4892036211
49508 22 15.6865742058 29.5744420245 30.0732902704
49509 23 15.0482579803 32.0203231299 30.0942432063
49510 24 12.3055373805 22.8428436708 23.3706892834
49511 20 30.6165699653 72.3285335457 55.2920194102
49512 20 32.2971076714 74.2571390463 56.6761291975
49513 21 29.662650143 71.9461424657 56.4980292424
49514 21 33.6521265521 74.0973729102 55.8689734663
49515 22 31.6034158297 71.2956660542 55.2482427406
49516 22 29.7676019022 72.2800798814 54.1715050397
49517 22 32.1760670507 75.6735200965 56.9083887502
49518 22 32.4161839544 73.5637278243 57.8640858305
49519 23 31.1322553918 73.7362153858 55.6968600644
49520 24 39.2991298539 70.1317491736 50.010382928
49521 20 92.0808849159 12.3395017154 68.8517492865
49522 20 90.9800139227 12.7762675348 71.3426230802
49523 21 91.8379618154 10.7923425418 68.4158533881
49524 21 90.3591896571 13.9505673435 70.6471539805
49525 22 93.2929748411 12.7418448544 68.238688832
49526 22 91.0007797788 13.0883166157 68.2716148741
49527 22 89.9375118223 11.7566265841 71.3551574258
49528 22 91.38204838 13.2952268576 72.6179459726
49529 23 92.1940681856 12.4144271692 70.4117140714
49530 24 91.2081577201 17.2783425541 76.7222893696
49531 20 87.2776114432 14.640985289 67.7184199507
49532 20 86.0063107661 13.0798044855 69.7337369316
49533 21 87.0167286834 16.2275154033 67.7795015004
49534 21 85.5994122343 14.1502750137 70.8130002096
49535 22 87.304738012 14.4205117627 66.2863241987
49536 22 88.5831477208 14.6370566135 68.3330705834
49537 22 84.938365815 12.1415525952 69.7878965293
49538 22 87.2788274618 12.4816823518 70.2103226832
49539 23 86.0344662737 13.9497254844 68.3914394762
49540 24 93.6985638143 14.0976120543 62.989042993
49541 20 77.110386383 82.9026571376 15.828941922
49542 20 74.9935786189 80.9854635038 15.6667437486
49543 21 77.0159110917 83.438453641 17.1848962016
49544 21 74.3176593567 81.1467262782 17.0948172853
49545 22 76.5372674625 83.982481655 15.0321691188
49546 22 78.548562228 82.7025753078 15.6529933844
49547 22 74.2286093792 81.8254517372 14.7739990159
49548 22 74.9377353031 79.6012601766 15.3471179364
49549 23 76.4813306069 81.4415640189 15.824545547
49550 24 79.4050134825 81.0598277182 15.4162439169
49551 20 95.1463742683 47.1794916257 67.2817757332
49552 20 94.7310571462 44.3646891848 67.0983440042
49553 21 93.7304609176 47.5775974075 66.8736611828
49554 21 93.6439365172 44.193324102 66.0587416406
49555 22 95.9587682334 48.2204970877 66.7634711896
49556 22 95.0146700998 47.1475009825 68.717519541
49557 22 95.5720743184 43.2114358518 66.9013489909
49558 22 94.1176225321 44.3686178602 68.3680545031
49559 23 95.3052050055 45.7649813734 66.6029567343
49560 24 93.1947579541 41.3293196777 63.9736439
49561 20 38.6934590509 16.9286904364 67.9801445695
49562 20 40.4999014521 18.589771845 66.5316793363
49563 21 37.3617316033 17.252338464 67.3430443627
49564 21 39.5099687713 19.1960038874 65.5087270735
49565 22 38.7313427073 17.7648435342 69.099910621
49566 22 38.6152597008 15.5573956144 68.3388700567
49567 22 40.612991182 19.5252643085 67.6219803217
49568 22 41.6890741037 18.4167230441 65.782892498
49569 23 39.8338974185 17.2302630494 66.9479318573
49570 24 43.9106465472 13.2979395145 65.1460729108
49571 20 55.8639223121 96.0307939505 6.0829363511
49572 20 58.5340185395 96.2671692585 6.855529092
49573 21 55.532042774 3.5467752185 5.0378712577
49574 21 58.8695461334 4.101630475 6.357588183
49575 22 55.3685350422 96.5380607868 7.3348649164
49576 22 55.1285116784 94.8336704081 5.7021167413
49577 22 58.145173207 96.5780023208 8.2361591953
49578 22 59.7149596806 95.515950383 6.6530152251
49579 23 57.3883419379 95.7903028873 5.9514753863
49580 24 49.9630517425 91.5886780023 92.2595461103
49581 20 4.1240379563 45.525425709 26.1312385867
49582 20 6.3909070927 43.9675188018 25.3147288663
49583 21 3.9951053748 46.8731484782 25.3802067909
49584 21 6.0031561769 42.7458878076 26.1854917243
49585 22 4.8018233393 45.7975332559 27.3634395888
49586 22 96.333676122 45.0548265106 26.3449772407
49587 22 6.9371426481 43.4735346302 24.0602653699
49588 22 7.3011344312 44.7651334639 26.1150561853
49589 23 4.9525348139 44.646057181 25.1737642485
49590 24 95.2175581264 43.7036427654 27.0113554339
49591 20 84.5084564697 54.0384913127 88.6399264355
49592 20 86.1401663521 51.8320723317 88.5814640028
49593 21 83.1450189987 53.9980820792 87.9734547024
49594 21 85.1992485748 50.6601110204 88.1914026516
49595 22 84.993180192 55.3820047867 88.4797861398
49596 22 84.1614234691 53.7232618755 90.0016801885
49597 22 87.3363544956 51.4876584481 87.8706543607
49598 22 86.338377384 51.7771644149 90.0001835502
49599 23 85.4486259279 53.0770882991 87.9411834396
49600 24 78.2692521094 53.4879155063 94.647806642
49601 20 87.7885263352 6.7047989095 28.4106186837
49602 20 87.4424287335 8.4882398512 30.5532434581
49603 21 88.5756645294 7.4755489145 27.32761381
49604 21 88.5055096102 9.6089974255 30.3511972906
49605 22 86.848450417 5.9052666795 27.6611770661
49606 22 88.8603064219 6.0601593873 29.1190898285
49607 22 86.3987106146 9.2091330936 31.2189668721
49608 22 88.1567928915 7.4738651965 31.3209253547
49609 23 87.0755652757 7.9615541333 29.0957983953
49610 24 66.8709485259 18.4100817117 6.962417127
49611 20 71.1638683459 15.3977230182 96.0122730518
49612 20 69.7001561102 13.0293864835 96.0739158409
49613 21 72.5337600695 15.5686204015 3.3512731019
49614 21 69.4971745438 12.4571000681 94.6576283307
49615 22 70.1235176631 16.1379977263 96.6885664736
49616 22 71.513988163 15.9963783293 94.7314313058
49617 22 69.8932224481 11.8480524749 3.3344321797
49618 22 68.5330588733 13.7717190693 96.3435913506
49619 23 71.0382442704 13.8636687835 95.8790722451
49620 24 23.5210078904 19.2062932755 53.904448647
49621 20 19.8949339631 45.2659460476 82.2122391921
49622 20 22.4953429707 45.5867878784 83.132578193
49623 21 19.5843815204 46.1551362644 80.9922919159
49624 21 22.013612525 47.0466649785 83.5316193738
49625 22 19.4806457798 46.1101435762 83.3060946933
49626 22 19.090303809 44.0998777495 82.0374131333
49627 22 22.6031009267 44.8794392124 84.3063167624
49628 22 23.7716948019 45.8267177023 82.50950897
49629 23 21.3878306451 45.0926166271 82.0739872312
49630 24 18.2426453044 37.8504775409 87.5573892612
49631 20 51.822250643 66.0490134917 88.3915780213
49632 20 50.3185033335 66.4757424807 86.08114268
49633 21 51.789231061 64.5257163447 88.6672400841
49634 21 50.2780005601 68.0073646782 85.7568398732
49635 22 51.743209434 66.6503814597 89.7177866152
49636 22 53.0803621953 66.282582603 87.780014205
49637 22 51.4139490129 65.9426586341 85.2881114726
49638 22 48.9589945379 66.073146784 85.7690935991
49639 23 50.4967903683 66.3593788546 87.6179095716
49640 24 52.6613034775 65.1534625623 84.0978163423
49641 20 63.4878912389 33.8741902566 6.7065855214
49642 20 64.2173153196 31.428402691 7.8055576548
49643 21 63.0153277027 34.4657365359 8.0656359715
49644 21 65.1031381002 30.5969265879 6.8265317254
49645 22 62.7480842303 34.5848128188 5.7236028546
49646 22 64.8917379435 34.1108461843 6.6011754167
49647 22 65.0868621589 32.1706417369 8.6727005189
49648 22 63.553836863 30.4318286778 8.5807040348
49649 23 63.2313113142 32.2744710174 6.8803732874
49650 24 65.7809281602 33.2018255103 10.144747159
49651 20 17.2101519725 60.7725217036 38.4800010165
49652 20 14.4177055659 60.4206246286 38.1919916879
49653 21 17.3918999834 61.9186660047 37.4585453919
49654 21 14.2884334347 61.6415073036 37.2347979694
49655 22 18.380336026 59.9496512705 38.2109802861
49656 22 17.2412072168 61.3756669296 39.7426024836
49657 22 13.5438558915 59.4047813975 37.6945465403
49658 22 14.0165129676 60.9429513875 39.4582412108
49659 23 15.8910524105 59.9138254918 38.1446605024
49660 24 17.2832066285 61.3934395091 41.6043269612
49661 20 36.6484899241 34.7804047338 19.0733730885
49662 20 37.5043799392 37.3013983728 18.5565651832
49663 21 36.1751780687 35.0544766184 20.4014524802
49664 21 37.6871568889 37.3362887526 16.9838789729
49665 22 37.1838187281 33.4806679294 19.0090176425
49666 22 35.4920562348 34.8317581347 18.25517965
49667 22 36.1873382548 37.8415912511 18.8706721417
49668 22 38.5888814512 38.1253912846 18.9427913987
49669 23 37.7632983612 35.7956867254 18.8998565881
49670 24 26.15443648 34.8059411244 89.6043227257
49671 20 52.6396957624 69.5110184479 93.1245094949