ITEM: TIMESTEP
12250000
ITEM: NUMBER OF ATOMS
4000
ITEM: BOX BOUNDS pp pp pp
3.23005382 96.76994618
3.23005382 96.76994618
3.23005382 96.76994618
ITEM: ATOMS id type x y z
49081 20 21.3353547655 38.353535082 14.477571097
49082 20 18.6911690883 38.1402641274 15.3436569604
49083 21 21.4423644024 39.9124709281 14.3532565801
49084 21 18.5246680799 37.4130850042 13.9550572583
49085 22 21.0092747007 37.8391592139 13.1770859736
49086 22 22.6552026467 37.9504716858 14.9377873674
49087 22 17.9048727531 37.4343185598 16.3704443588
49088 22 18.2253404243 39.4994923033 15.0991436818
49089 23 20.225223323 38.0612229184 15.6062234383
49090 24 13.0294800234 33.2146404756 23.0741678246
49091 20 43.0067705674 54.3619522605 55.818836084
49092 20 44.2036134901 56.0742935301 57.6951527849
49093 21 43.0222046496 53.0092718771 56.7195317076
49094 21 43.452020455 57.3617766085 57.3254831303
49095 22 43.3774691608 53.7963165314 54.5973921696
49096 22 41.7335990925 54.9464830479 55.9446472392
49097 22 43.4363057531 55.6354043551 58.8797419817
49098 22 45.5527393576 56.5233785533 57.9467750953
49099 23 44.1748032033 55.2657347005 56.3404145238
49100 24 42.5075481618 55.8636416925 60.6363276203
49101 20 95.9700865604 33.2340967732 80.9424351533
49102 20 95.7881514698 34.4442223606 83.5127243156
49103 21 4.0416788872 33.4615857914 80.9571209164
49104 21 3.3982357403 35.5448127341 83.4931744781
49105 22 95.4901333727 33.6537167303 79.6365247161
49106 22 95.7191190292 31.8495192865 81.2630899043
49107 22 94.7447139705 35.0924538147 84.1761092322
49108 22 96.4060759987 33.3628076651 84.2367230824
49109 23 95.4295195224 34.1965287257 82.0534084549
49110 24 90.5031475514 39.4750783914 80.1567935974
49111 20 83.1613884799 81.6279890244 77.3810908315
49112 20 82.2672406488 81.9282520789 80.0738237128
49113 21 82.6127770112 82.8456913432 76.6208921263
49114 21 82.3475914163 83.5216106053 79.9274337813
49115 22 83.2135837398 80.5832419666 76.4687962613
49116 22 84.4716017522 82.0043935513 77.7892053818
49117 22 81.1219382067 81.6423941678 80.8348642771
49118 22 83.5650131154 81.5371617889 80.6395529818
49119 23 82.1337592224 81.4155599289 78.5586645364
49120 24 86.0635571802 82.5207337571 78.7438735233
49121 20 38.7042161385 57.2298853603 53.0198418849
49122 20 41.393300964 56.980695087 52.0980997856
49123 21 38.5736344487 58.6280261314 53.787149622
49124 21 42.1171126511 58.29895279 52.195100654
49125 22 39.012243004 56.2843841283 54.0361528154
49126 22 37.4058824325 57.1254948404 52.429698704
49127 22 41.71835209 56.3622093187 53.3366615004
49128 22 41.8770892873 56.4804437427 50.8330662813
49129 23 39.8425966285 57.4300607299 51.9600349045
49130 24 47.4186731304 56.1527734997 57.7893474565
49131 20 78.4858905001 48.0182638404 26.0332087795
49132 20 78.8634175057 46.0481266276 24.1065676166
49133 21 79.9700879722 48.3594038279 26.2108410351
49134 21 77.5007283538 45.7432801184 23.3672283074
49135 22 78.0539232772 48.2667057946 27.402352184
49136 22 78.070666918 49.0294300769 25.0805985157
49137 22 79.4200734051 47.0490034758 23.2296311257
49138 22 79.5187579916 44.772897275 24.0760736117
49139 23 78.492999532 46.5443557565 25.5903909291
49140 24 78.419944876 52.8492251213 21.9949045465
49141 20 44.253283173 37.0082443501 9.3114844439
49142 20 46.5294829136 35.495423671 8.3140966336
49143 21 43.2181707241 36.005496704 8.7820112371
49144 21 45.8989304992 34.5798552045 7.1191432167
49145 22 43.7216959647 38.3270632925 9.0711430444
49146 22 44.5092083185 36.7993697705 10.6973434271
49147 22 47.8628005393 35.8884782987 8.0543924764
49148 22 46.3303364828 34.6443977303 9.4497176968
49149 23 45.5539553762 36.7707465634 8.3833067999
49150 24 49.7654019499 36.1582473482 7.960918062
49151 20 69.596981609 25.4301570935 39.921263678
49152 20 69.055572712 25.1414929856 37.0933656522
49153 21 70.0367126429 26.8421417686 40.3954173924
49154 21 69.2928834189 26.4373011145 36.2530032592
49155 22 70.3724273166 24.572022121 40.7029765584
49156 22 68.2199808535 25.3142611668 40.1841107755
49157 22 69.4462888424 24.05147262 36.2649763654
49158 22 67.657338401 25.1873275329 37.3874550737
49159 23 69.9293288465 25.3692626235 38.3910445789
49160 24 66.6777886482 24.9425336346 38.9363821513
49161 20 37.4539619372 45.8284949603 44.2627307021
49162 20 35.0952600115 46.318831076 45.7710614664
49163 21 37.1521087046 46.1585037005 42.756831975
49164 21 34.1960610262 47.1093367064 44.797217647
49165 22 38.2307172034 44.6302489392 44.1493603525
49166 22 38.0124886345 47.0087813221 44.8327628061
49167 22 34.1625737447 45.4467586596 46.4548380795
49168 22 35.7834329995 47.3020288846 46.5564224026
49169 23 36.0698521499 45.4300150188 44.848477508
49170 24 85.601470112 54.9695874013 17.5296842448
49171 20 6.8331075798 73.7983258743 38.7696940631
49172 20 5.9084283279 73.4745843069 36.0456253178
49173 21 5.5627890716 74.5712460049 39.3732134486
49174 21 7.0918015061 72.9733040237 35.2414628632
49175 22 7.6910835345 74.8099598102 38.4513778094
49176 22 7.2479757104 72.9845288108 39.8349263573
49177 22 4.8396602258 72.7686387392 35.4983234076
49178 22 5.9777320341 74.8937715537 35.9232751386
49179 23 6.1718273108 72.9315852317 37.559287856
49180 24 5.8051228708 76.8571738944 35.4792412696
49181 20 4.0858456182 26.1182365417 75.5085157263
49182 20 4.0092654437 28.7886133888 75.2994540669
49183 21 96.0947752369 26.1454566503 75.3239615187
49184 21 96.2539801337 29.0688589063 75.9219620506
49185 22 4.2672896244 25.1405575867 76.4831078648
49186 22 4.6594088532 25.8644628137 74.2527426714
49187 22 4.7288715772 29.9208202459 75.6911055962
49188 22 3.6237127154 28.627631234 73.9182440163
49189 23 4.4388885569 27.4845737494 76.1020263434
49190 24 93.7585228853 27.884643869 82.2738819812
49191 20 91.754898391 91.4980378466 91.0966581684
49192 20 94.4828022719 92.3517764441 91.0568101743
49193 21 90.596500364 92.5433461437 91.0091048292
49194 21 95.4000544564 91.4304085044 92.0048369834
49195 22 91.2111509967 90.543463245 91.9892158213
49196 22 91.9311275482 90.8956409398 89.7843870185
49197 22 94.7000019019 91.8509638604 89.7051587297
49198 22 94.9816505178 93.6095138368 91.3185347931
49199 23 92.9915893079 92.2415864509 91.6752024027
49200 24 91.327327543 85.7753607719 85.7743318331
49201 20 48.1059107196 71.2764903763 85.6041827688
49202 20 45.7323359509 70.8216994196 84.2141799684
49203 21 49.107535887 70.3988055663 84.7904792452
49204 21 44.7740197537 71.8931988866 84.713308834
49205 22 48.5176733258 71.1739706543 86.9706135164
49206 22 48.2038469869 72.587171348 85.0759629967
49207 22 46.2125697583 71.4935964665 83.0802893932
49208 22 44.8989890499 69.7815358166 83.8783717548
49209 23 46.7145048207 70.5015123681 85.3766937506
49210 24 45.2583693164 68.4671132491 86.1685089395
49211 20 42.7717048179 69.1307787854 78.5505265658
49212 20 43.9576971131 71.144692668 80.0916898323
49213 21 41.5733652568 69.9677737423 78.0783371891
49214 21 42.8050050195 72.2099249621 79.9437097226
49215 22 42.3988548069 68.3841433646 79.7032186593
49216 22 43.1060163932 68.3865754018 77.3625699328
49217 22 43.6984045315 70.5210622056 81.3773021129
49218 22 45.1582816315 71.938939894 80.0299535033
49219 23 43.854335532 70.1804834575 78.8125318043
49220 24 42.3099919092 66.5690952933 79.9037681885
49221 20 79.335045643 74.0685626233 73.1710473561
49222 20 79.2541336361 72.1684867898 71.1401092132
49223 21 78.0944260506 73.3260429578 73.8714740701
49224 21 79.0582611015 70.6610914245 71.6840436873
49225 22 78.6353672481 75.0779516018 72.5008340274
49226 22 80.1938353947 74.5366362447 74.2139236161
49227 22 77.9509358557 72.6794952218 70.8840905278
49228 22 80.0740107926 72.0914099185 69.9243712322
49229 23 79.9655980574 72.9665691514 72.3097320273
49230 24 77.2223536341 73.6638155091 69.4521818556
49231 20 91.1443635135 88.6235569543 78.8183312776
49232 20 92.5851584756 90.1311393995 76.8712048782
49233 21 89.9834399095 89.5814054521 78.5602547146
49234 21 94.0982597744 90.2093387495 77.2622951682
49235 22 91.7766931859 89.1216568812 80.0123680036
49236 22 90.5275614633 87.3589911495 78.8753906119
49237 22 92.6251935495 89.8533259192 75.4329354933
49238 22 91.9744365183 91.4410720521 77.1598689861
49239 23 92.0237320416 88.8613353607 77.5773375257
49240 24 93.9926532359 62.2922643348 4.6506067493
49241 20 11.5675076298 73.2639324693 41.800012416
49242 20 11.2073883982 75.8830494553 40.9009069707
49243 21 11.7668785563 73.7033828836 43.3290154965
49244 21 10.260306342 75.9610617256 42.1549027676
49245 22 12.4298799594 72.2184370924 41.6587671786
49246 22 10.1702087177 72.943464798 41.7966449799
49247 22 11.9668668462 77.0677321921 40.9142831753
49248 22 10.3488979741 75.8019503687 39.8130380225
49249 23 12.0917706645 74.5630144944 41.0373816736
49250 24 9.5298533226 75.6008396001 38.2075193101
49251 20 56.9068921119 77.2412486924 91.0971258679
49252 20 55.6488740996 74.6005239912 91.1598911357
49253 21 56.6649044104 78.0725377158 92.3528989228
49254 21 55.4733932615 74.2014828104 92.6288416053
49255 22 56.7175673698 78.2594304207 90.0627617382
49256 22 58.2267399931 76.7242537073 91.2332264113
49257 22 54.4538084348 74.1689309278 90.5724606117
49258 22 56.7527383693 73.8313454563 90.7090288545
49259 23 55.77889455 76.1654463904 91.1166757054
49260 24 57.0753574581 73.0899482695 88.8792014802
49261 20 34.5537575746 72.0184488025 67.9807993488
49262 20 34.8715125889 71.5376537558 65.210241277
49263 21 35.9465665718 72.3984078453 68.7047981156
49264 21 36.3556165211 71.8448387623 64.8457163164
49265 22 34.5004398359 70.580647117 68.1446812402
49266 22 33.6117173186 72.7498372208 68.7290249478
49267 22 34.6883614797 70.1702876092 65.4073298302
49268 22 34.2547105387 72.0055402973 64.0174205696
49269 23 34.6300861267 72.4474227488 66.4894928449
49270 24 30.840130308 66.2553624943 60.4612209418
49271 20 86.1772081494 36.5114539818 84.6268779735
49272 20 85.9278307964 33.7743831914 83.7224407542
49273 21 86.807667024 36.2117521667 86.1105142062
49274 21 85.7376641952 32.7440412771 84.9002015389
49275 22 85.3187925573 37.5967973528 84.9812070857
49276 22 87.3160563389 36.8865489501 83.8143904684
49277 22 85.1098244377 33.189945944 82.7044461057
49278 22 87.2918295068 33.7584814097 83.4553843616
49279 23 85.3941857105 35.1221059606 84.3041653448
49280 24 88.7644280322 37.3777269249 82.668526787
49281 20 13.7781733219 51.5215198891 14.7611840507
49282 20 12.1511123722 50.924641836 12.5222880191
49283 21 14.3294039075 52.9732590185 14.5852355131
49284 21 11.723728604 52.2034257044 11.6784552961
49285 22 14.8413477384 50.6673135921 14.2512980974
49286 22 13.6669543898 51.4580063022 16.1952441404
49287 22 13.251450188 50.406711452 11.8566207291
49288 22 11.0940367566 50.0411575526 12.3778437173
49289 23 12.3509042283 51.4496812518 13.9839610851
49290 24 10.429744503 49.5916048299 14.3134085859
49291 20 35.6925122242 23.2924899334 44.622578668
49292 20 36.2165227012 23.326725534 41.8542655536
49293 21 36.8026436667 24.0640069655 45.3456420359
49294 21 34.8333483128 22.7315311989 41.2229648201
49295 22 35.3299516014 22.3123789412 45.5796788466
49296 22 34.7120270725 24.3036561698 44.4163232053
49297 22 35.9618135743 24.7195345312 41.7533360097
49298 22 37.2329271716 22.9157112469 40.9678815336
49299 23 36.2873323997 22.7319053584 43.3023566272
49300 24 37.136955242 21.072507668 45.0606259839
49301 20 53.4979242748 27.464930372 75.5804479036
49302 20 54.4596079081 26.4566638722 73.0659085171
49303 21 54.9773512123 27.6360148351 75.9131693007
49304 21 53.6338377384 26.7685258734 71.8886154319
49305 22 52.8954338281 26.8309169816 76.6338006314
49306 22 53.0053432016 28.8220071303 75.3100240747
49307 22 55.4310196903 27.4826094116 73.074701267
49308 22 55.008967696 25.162071762 72.8587176556
49309 23 53.535995011 26.4540447552 74.3061539499
49310 24 56.2162870867 28.9429542112 72.3872765981
49311 20 68.904318706 14.8062702788 84.3216573047
49312 20 68.7203257378 14.6986058627 87.1558225033
49313 21 68.7435236311 16.3350862795 84.2704909836
49314 21 69.5127021659 13.399149678 87.5763778594
49315 22 68.217829436 14.3442767504 83.1011487892
49316 22 70.2852481369 14.6170390765 84.1027739566
49317 22 69.684722028 15.6908770408 87.234302473
49318 22 67.583441886 14.858184919 88.0172313721
49319 23 68.2515037973 14.3356710803 85.6741506083
49320 24 66.1885750112 14.1377406681 82.957939214
49321 20 85.6048375481 79.4160511898 73.4747713866
49322 20 88.4142146752 78.8927890319 73.373654763
49323 21 85.3512508999 80.2392022425 72.1300418941
49324 21 88.6347817414 77.8043588444 74.4132571267
49325 22 84.6625166725 79.9904796688 74.381734183
49326 22 85.3914730536 78.0294158254 73.1662768216
49327 22 88.1854160985 78.1430667946 72.2244236455
49328 22 89.6143314942 79.6716021757 73.3572852818
49329 23 87.1644281734 79.7522335629 73.8049672067
49330 24 77.34760355 78.9744493579 40.6644381228
49331 20 85.4920284379 37.2275018578 15.3911752257
49332 20 82.6888249437 36.8542776873 14.6821428416
49333 21 85.4619085926 35.9776218161 16.1815873162
49334 21 82.3682637325 37.6970721174 13.2733385228
49335 22 86.2386638587 38.2219244535 16.144358439
49336 22 85.9833934925 36.7716819623 14.1057500249
49337 22 82.8596287871 35.5257305961 14.1924615051
49338 22 81.4912337018 37.0651166047 15.4357937544
49339 23 83.9531101288 37.5516175848 15.4075447069
49340 24 38.4483845329 38.3760781961 66.7480371074
49341 20 77.1709066933 50.6019292073 19.9771555284
49342 20 75.9684513771 48.6924993846 21.5413296085
49343 21 78.4745721732 49.7655890297 19.8021423898
49344 21 76.5426927763 47.3620814955 21.142007808
49345 22 77.5433825447 51.4907452645 21.0251764824
49346 22 77.0852241519 51.359134636 18.7330749601
49347 22 76.7391265502 49.0939726026 22.6441649394
49348 22 74.6205415282 48.2897166081 21.9428028265
49349 23 76.0276621289 49.5545630326 20.2792893808
49350 24 80.8483340216 54.261583956 22.8631418274
49351 20 72.4399395575 87.3126889028 18.7671234809
49352 20 71.8049907681 89.8350856402 19.8129930174
49353 21 73.9486444813 87.3981843644 19.0063985255
49354 21 70.8626698925 90.3355240643 18.757488872
49355 22 72.2380804697 87.5093097565 17.3622478375
49356 22 71.8955373839 86.0262347632 19.2375355996
49357 22 71.2370165417 90.1890405929 21.0803650189
49358 22 73.084242336 90.4492685734 19.5020664152
49359 23 71.7864698694 88.3217972616 19.8054162861
49360 24 63.1046582999 86.8166468536 23.5495375576
49361 20 37.0678292615 90.4775176209 8.0916961855
49362 20 35.3844853586 88.8052114253 9.6836703216
49363 21 36.1691915156 91.6376929059 7.4790940765
49364 21 34.8502790334 89.9324606681 10.4238889058
49365 22 37.9573936379 90.0781958204 7.0286807868
49366 22 37.7501092364 91.1521273246 9.1490337128
49367 22 34.209250151 88.0510928131 9.4499889625
49368 22 36.3527167844 88.1972956649 10.5229102358
49369 23 36.0761193227 89.3266027853 8.3158738915
49370 24 37.3738917893 86.8827795575 11.1392913565
49371 20 92.2717062963 31.7515830192 79.4284919955
49372 20 91.0603646902 33.5745819814 81.1471939777
49373 21 91.3333140961 30.8546289913 78.4497841017
49374 21 89.8688535413 34.1583644496 80.2698833272
49375 22 93.226935677 30.7939216012 79.825194679
49376 22 92.7790666724 32.8016618508 78.6335899902
49377 22 90.573021851 33.6189198903 82.5159632226
49378 22 92.1641354201 34.4632109588 80.8399154313
49379 23 91.3353719737 32.1567978329 80.576881254
49380 24 89.0936884533 33.7890689545 83.6102864233
49381 20 24.6443284577 45.2261915934 86.5770911893
49382 20 25.5891749105 45.0616549227 89.23558847
49383 21 25.1077250845 46.4364107207 85.8081932741
49384 21 25.6590492101 46.5137682117 89.6302332759
49385 22 23.3926711581 45.6927685765 87.1608736575
49386 22 24.5646324695 44.2069809262 85.5770562001
49387 22 24.2483740934 44.6925465075 89.5765413777
49388 22 26.6657255316 44.4048177986 89.956032721
49389 23 25.8114256947 44.9961769981 87.6300697576
49390 24 18.4092398527 45.3403102621 85.4782780737
49391 20 33.9667012101 18.4545131606 45.4770655847
49392 20 35.0538218391 19.4190029907 43.116586401
49393 21 32.467817975 18.0077666347 45.5891263757
49394 21 34.3417961785 20.8028321583 43.2062911578
49395 22 33.9027199238 19.7818442332 46.0628123907
49396 22 34.6582416343 17.385258651 46.1693543281
49397 22 36.2541257379 19.6421891739 43.8149552374
49398 22 35.109571615 19.0608387429 41.6891676436
49399 23 34.1972770448 18.42027756 43.9426371904
49400 24 37.7162477954 18.542814819 43.7242215418
49401 20 9.7661725066 46.7463083841 15.0652822407
49402 20 11.6710375826 48.2024438885 16.5481701543
49403 21 10.0463431922 45.7276589563 13.8582434697
49404 21 10.7890592916 48.4143117447 17.7236859816
49405 22 9.3683660524 47.942215908 14.3540984391
49406 22 8.7151395681 46.1117337544 15.7304444153
49407 22 12.9977699999 48.0572699756 17.0472054801
49408 22 11.3756666645 49.3989126517 15.8180912944
49409 23 11.1279636756 46.8665071458 15.8719702724
49410 24 14.5545544284 49.497690778 12.9090006421
49411 20 13.8184890155 38.5139559974 24.5748283177
49412 20 16.4960684343 39.2951076385 24.3751206475
49413 21 13.2720289643 39.6241809798 25.3998501683
49414 21 16.3627740877 40.5074781834 25.2398034125
49415 22 13.0577290709 37.3571481486 25.0150270512
49416 22 13.721581687 38.9310503775 23.2064332324
49417 22 17.7321981118 38.6991649843 24.7544249111
49418 22 16.3826045448 39.7507404542 23.0331973517
49419 23 15.2933324983 38.4177969881 25.0068890805
49420 24 15.1639668272 39.1597554143 21.9196984731
49421 20 39.5994864483 20.2201721688 42.3540491985
49422 20 39.7046252873 22.4450185086 44.1074544808
49423 21 38.2514830595 20.266942115 41.7351892706
49424 21 41.0359785752 22.2808559975 44.7704652378
49425 22 39.4471099636 19.3408971806 43.4624033831
49426 22 40.483531971 19.859388804 41.309021521
49427 22 39.4745171521 23.8439075988 43.9958613892
49428 22 38.7815736295 21.889391548 45.0037537294
49429 23 39.8132251023 21.735518425 42.7249348717
49430 24 39.2286943149 25.2818028242 45.3487288524
49431 20 11.6507768419 24.3010370528 55.1799586192
49432 20 13.1874689016 22.4161146818 53.8398125814
49433 21 10.4788716545 23.3560035203 55.0677107484
49434 21 13.0398629515 20.9243404785 54.2507333285
49435 22 11.4493948077 25.1405575867 54.0716979745
49436 22 11.5051913535 24.8846324412 56.5116860667
49437 22 12.1936543152 22.5215341405 52.8174215579
49438 22 14.5181674103 22.5872926849 53.4669625704
49439 23 12.843896877 23.322329159 55.0678978282
49440 24 16.0059193983 28.2922907199 60.5333401989
49441 20 47.599766362 34.1642574628 75.4478083362
49442 20 46.7185270361 32.8610596824 73.0696501128
49443 21 48.8073663724 35.0715944187 74.8948004926
49444 21 47.6094009709 33.3165989582 71.8728071901
49445 22 48.0390296965 33.726958466 76.7622309036
49446 22 46.4503481647 35.0005041005 75.4295680572
49447 22 46.3888924554 31.503141065 72.7640552845
49448 22 45.5853847801 33.7048830514 73.123342011
49449 23 47.5901317531 32.9563768327 74.4229852755
49450 24 46.0076238542 36.8409950226 75.4874692505
49451 20 13.7893045691 49.4179947897 54.4612916262
49452 20 13.9903217977 47.6569192363 52.1254134342
49453 21 13.6602195176 48.7284187032 55.8969418941
49454 21 13.3564954871 46.2438120824 52.3753520266
49455 22 12.4924020234 49.7562350405 54.0454132648
49456 22 14.6997283414 50.4734053952 54.5778423321
49457 22 12.9807457395 48.4315230849 51.4713825068
49458 22 15.1472231864 47.4241919841 51.358199237
49459 23 14.3066737137 48.1589478386 53.5950186831
49460 24 10.1718830818 51.1617654631 57.7120835054
49461 20 47.5026719538 80.4940984492 19.3746650818
49462 20 45.966934001 78.8886732766 17.7558637046
49463 21 48.146413493 81.876898678 19.1656969622
49464 21 44.6576561276 78.8650076839 18.5656385527
49465 22 48.5980240933 79.6223066524 19.5566001724
49466 22 46.745560065 80.6995120528 20.5445685155
49467 22 45.6813567096 78.7201143906 16.3768050715
49468 22 46.677743643 77.7487961483 18.2897894102
49469 23 46.6744697468 80.257068362 18.0623003919
49470 24 47.9413740489 76.5132277102 18.1400320425
49471 20 20.8435220115 43.1145285234 88.2899936982
49472 20 18.0870884634 43.5268523689 88.2738112968
49473 21 21.0122679773 41.7397727253 87.8571846162
49474 21 17.4035924699 42.1693079111 87.8376347787
49475 22 21.8119405171 43.3475363952 89.2976054187
49476 22 20.9897248632 43.8880098933 87.1477780726
49477 22 17.2119292305 44.1233562625 89.2396106854
49478 22 18.2949341042 44.2638531808 87.047503308
49479 23 19.4189094508 43.1310850843 88.9405636495
49480 24 16.6976469023 45.8345750533 88.8242935633
49481 20 78.4906610347 74.9096733354 67.0583089303
49482 20 76.2971505588 73.304154623 66.5673180353
49483 21 77.7407517176 76.2476679558 66.9915214472
49484 21 75.1562444917 74.3354319362 66.2444183269
49485 22 79.7258553133 75.1423070477 66.4778003583
49486 22 78.5306025687 74.5012781654 68.4660843103
49487 22 75.9956714857 72.2222722279 65.6459500956
49488 22 76.1684396669 72.9932280208 67.977151293
49489 23 77.616156581 74.0322691451 66.1580810062
49490 24 36.0807027775 29.9660000139 70.5979519971
49491 20 52.5623382714 74.7517779971 20.3736711322
49492 20 50.0131891248 76.0656393252 20.438961977
49493 21 52.8785031076 73.3688842285 19.8442353414
49494 21 49.4800117384 75.9659258 21.9283976831
49495 22 52.9234022559 74.745791444 21.775553499
49496 22 53.2992455434 75.6115031478 19.5073046491
49497 22 50.6617011985 77.3365658427 20.4166059428
49498 22 48.8462789676 76.0300006262 19.6132853472
49499 23 51.0284711165 74.8502755038 20.1595583186
49500 24 57.668119756 78.8471415644 19.6475209478
49501 20 33.3601885481 7.233551859 24.2175059289
49502 20 31.4045500185 8.8235335954 22.8099176287
49503 21 34.4974465594 8.2211834585 24.4148751018
49504 21 31.537937905 10.2921940913 22.8953195504
49505 22 33.7148918199 6.583580563 22.986895105
49506 22 33.3234273704 6.43493632 25.4131328331
49507 22 31.9870229282 8.5448314861 21.5674272385
49508 22 30.0286717418 8.5832763818 22.8679123619
49509 23 32.2084318534 8.293742353 24.053156338
49510 24 29.1405104638 7.6766129132 21.4479767959
49511 20 44.2781647843 44.587781828 36.5958269647
49512 20 45.3167382092 44.2168961548 39.2196209454
49513 21 42.8607547954 45.1021576961 36.7731786006
49514 21 46.2422219042 42.9411055629 39.3592760047
49515 22 44.1621753178 43.718796228 35.4229302544
49516 22 45.0381764097 45.8023037904 36.2952832905
49517 22 46.2290327794 45.2963465127 39.0430176286
49518 22 44.5686061501 44.392283453 40.403555363
49519 23 44.5813275755 43.7708044082 37.8849002213
49520 24 45.8163347743 51.332195147 40.4276886552
49521 20 5.1680600799 29.6832289193 68.3797469897
49522 20 5.9701740108 27.8219721411 70.4257450553
49523 21 6.5333309328 30.370840668 68.8459498132
49524 21 5.7226581017 26.3379617488 70.0907787007
49525 22 4.321542762 30.8091686036 68.2046403112
49526 22 5.5750240895 28.9909401759 67.2007701864
49527 22 7.3436950823 27.9340329322 70.0629973527
49528 22 5.6807428759 27.7889525591 71.8257566242
49529 23 4.9075327717 28.6731851616 69.6125092311
49530 24 11.8027230431 25.5638255996 74.5750811405
49531 20 6.9053577927 26.4024107347 64.1567950092
49532 20 7.060615306 25.5786049026 66.824833359
49533 21 6.330629986 25.286292739 63.2926734836
49534 21 6.5679500469 24.100113364 66.8846988901
49535 22 7.8970116075 27.0118231334 63.367037698
49536 22 5.7743201842 27.252033577 64.4523810691
49537 22 8.1083649943 25.7172310231 67.7657511362
49538 22 5.9299237952 26.3594759241 67.0180867766
49539 23 7.5367427121 25.6670936408 65.3950761043
49540 24 92.9493092765 28.7558744264 66.2348772579
49541 20 95.4039831318 83.9865038704 65.1267101531
49542 20 93.1806334303 85.7671292613 65.1196011213
49543 21 94.8773535378 82.5595528124 65.1684289451
49544 21 93.9373711595 87.1783656174 65.0689960395
49545 22 95.7077071623 84.2710522229 66.5096974616
49546 22 96.5664969141 83.9659250941 64.2899958159
49547 22 92.0046499036 85.8970561718 64.3189931826
49548 22 92.9375232501 85.6168106543 66.5160581743
49549 23 94.1567222071 84.7322038923 64.4842781724
49550 24 90.402685707 86.1842236414 63.3023080925
49551 20 21.4572372453 47.0620055208 89.8443460895
49552 20 19.5355536966 47.1834203011 87.8483918663
49553 21 22.5948694161 48.1248993177 89.504141501
49554 21 19.7343259679 48.7706987346 87.5664626308
49555 22 22.2115429373 46.1306288126 90.5953778853
49556 22 20.4915313965 47.7059341399 90.650379342
49557 22 19.4858840138 46.6324703351 86.5216220331
49558 22 18.338617234 47.0209415081 88.6755651345
49559 23 20.878693011 46.6001990723 88.4940977433
49560 24 19.5005697769 45.1807312057 81.5810319984
49561 20 33.9098289556 65.5850556256 60.8860791329
49562 20 35.5644561115 63.2753686035 61.223196905
49563 21 34.211027409 66.6706796164 59.8782803327
49564 21 34.6978090088 61.9518726665 61.1403205604
49565 22 34.334406527 66.0195484257 62.1941409877
49566 22 32.4886773709 65.4925446721 60.7270613159
49567 22 36.7755170979 63.0940882921 60.4716974098
49568 22 35.6160901321 63.5724513016 62.6155382028
49569 23 34.6247543529 64.2615596886 60.4656173168
49570 24 34.3240235989 68.6764555282 64.3518256848
49571 20 65.4876805977 12.6931105705 91.3450065827
49572 20 67.6664117705 11.7015315875 89.8700695599
49573 21 65.8499606008 12.6916139322 92.8512794693
49574 21 68.6532576349 10.5979666454 90.4008149092
49575 22 64.0814953959 12.3804441263 91.3988855607
49576 22 65.7782155034 13.9720815187 90.8295082359
49577 22 67.4969174856 11.4796456089 88.5086899665
49578 22 68.4763736985 12.8184540262 90.062013419
49579 23 66.3996010083 11.5854111652 90.7609434948
49580 24 67.0222960718 22.9821245705 94.5286368191
49581 20 72.7763090104 50.0766091718 28.94398315
49582 20 75.2021725788 49.341292078 30.079744523
49583 21 71.8770164852 48.8890266984 28.4634687229
49584 21 75.3987934326 50.7000525544 30.9128108044
49585 22 72.5312344924 51.010604997 27.9136412356
49586 22 72.2615589827 50.4148494226 30.2736527199
49587 22 74.7151103593 48.4023386385 31.0230007976
49588 22 76.4574779343 49.0848056931 29.4798731933
49589 23 74.2847333146 49.5769190668 28.9147051637
49590 24 71.6142629276 49.5197661926 31.7907762341
49591 20 90.0066378028 62.6762455929 63.5238105576
49592 20 87.9248139584 60.8598879631 63.2228927239
49593 21 89.6104963586 63.0688325212 64.9661956978
49594 21 87.0916541372 61.121519042 64.4763272815
49595 22 90.552162455 63.8784202895 62.8606127208
49596 22 90.8739396847 61.5288852732 63.6313814338
49597 22 87.0590087147 60.5295986032 62.1791746049
49598 22 88.8356118903 59.8646235084 63.5591686369
49599 23 88.6740684962 62.259899532 62.9013025739
49600 24 90.6366289778 59.4667983462 63.5874176844
49601 20 93.4969853463 87.8672869246 86.6261060929
49602 20 95.0999784817 87.9297715727 88.9960328057
49603 21 94.0272629961 88.5173891765 85.3904441148
49604 21 95.7151903537 89.3107010036 89.0054803348
49605 22 92.5268831226 88.6886607194 87.2238260051
49606 22 92.8186340469 86.6964480919 86.2115372899
49607 22 93.8866725379 88.099827097 89.7486547796
49608 22 96.0604460964 87.0647146482 89.6135831751
49609 23 94.8246905784 87.7370793944 87.4483217467
49610 24 95.1669530446 4.4128844669 17.4651417191
49611 20 7.4736874707 7.7896745811 22.6874739096
49612 20 9.0118013367 8.7985584441 24.6716421063
49613 21 6.7821564005 9.1126560487 22.1221188002
49614 21 9.6909009552 7.5416348485 25.2509346597
49615 22 6.5307305238 6.7977401465 22.5413645977
49616 22 8.589244227 7.6375225921 21.8340159317
49617 22 9.8974183296 9.2180380914 23.7098649331
49618 22 8.8997405457 9.7298883824 25.7235917358
49619 23 7.7140475781 8.2171705971 24.153992342
49620 24 32.6522786427 27.61440712 48.4536920394
49621 20 44.1183986482 23.5538403926 71.1612492289
49622 20 44.7069516509 25.0155882905 73.5453940054
49623 21 42.8804917127 22.6798036384 71.4315795178
49624 21 44.5319385123 24.4812884254 75.0121930575
49625 22 44.9758788414 22.8011248788 70.3262186098
49626 22 43.5819473655 24.7209376296 70.5013252883
49627 22 45.9706755967 25.6765411699 73.510971325
49628 22 43.6445255535 25.9990667188 73.4408164057
49629 23 44.7349200787 23.7197801617 72.5757594812
49630 24 46.9464837538 32.7104604557 77.9222191088
49631 20 46.6129204976 87.853068861 77.0221782645
49632 20 46.4424908137 89.0587045336 79.6395179926
49633 21 45.1112310657 87.6608443822 76.3898485921
49634 21 47.8712191297 89.3470880217 80.2425696787
49635 22 46.9470449931 86.5856968594 77.6616169687
49636 22 47.4477640369 88.1409846496 75.8641543971
49637 22 45.6242038354 90.0795989188 80.1634349297
49638 22 46.1565393628 87.7754307503 80.2458435749
49639 23 46.5899096841 89.090508097 78.0493398225
49640 24 47.3136278313 84.5477432245 77.5701349539
49641 20 52.7865533934 69.1699720003 28.4140796597
49642 20 52.2749837221 71.3524447689 26.6769503187
49643 21 52.7649456782 67.7156137539 27.7902621176
49644 21 52.731271317 70.8530352836 25.3337174644
49645 22 52.2007130475 68.9906560267 29.7299053256
49646 22 54.1391402369 69.5244881924 28.2996803714
49647 22 51.1291200407 72.1711994467 26.4498354601
49648 22 53.3823089678 71.9678437207 27.2403410904
49649 23 51.9188773519 70.0212785607 27.3876664209
49650 24 54.4952466071 71.7470895747 28.8811243423
49651 20 88.5943725079 10.7388657853 47.9751419501
49652 20 90.1273042639 13.0787755467 47.6488748055
49653 21 87.3522562773 10.4394445899 47.1667702003
49654 21 91.6746411633 13.1162850435 47.3778897373
49655 22 88.0706426506 11.2322513016 49.2290442071
49656 22 89.1050067803 9.4269875029 48.0026426784
49657 22 89.7523028354 14.182172117 46.8386322579
49658 22 90.0525658899 13.2223592815 49.0542181483
49659 23 89.4953487511 11.7192106272 47.1208421131
49660 24 87.1129812326 11.8031252646 50.6706810282
49661 20 39.2162535093 40.155019869 69.2477036509
49662 20 37.9797496722 42.2199129928 67.8715447545
49663 21 40.750307744 40.5309566964 69.0533277546
49664 21 36.4937749421 41.6804684336 67.8675225391
49665 22 38.9513485341 39.1938039351 68.2218516514
49666 22 39.1561073585 39.7417606245 70.5897204866
49667 22 37.8968733275 43.6558438805 67.8927783101
49668 22 38.6054380122 41.6913190611 66.7065053951
49669 23 38.5538039916 41.6203222828 69.1926086543
49670 24 38.1581302469 38.3716818211 71.2538537223