ITEM: TIMESTEP
10000000
ITEM: NUMBER OF ATOMS
120
ITEM: BOX BOUNDS pp pp pp
3.23005382 96.76994618
3.23005382 96.76994618
3.23005382 96.76994618
ITEM: ATOMS id type x y z
1    1  36.099854   44.810291   54.287754
2    1  33.881088   44.510027   52.442208
3    2  37.429055   44.101257   53.842501
4    2  32.483603   44.104065   53.031513
5    3  36.004442   44.675592   55.703947
6    3  36.100788   46.199358   53.800412
7    3  33.817481   45.938381   52.215847
8    3  33.892312   43.764514   51.248641
9    4  34.949312   44.004911   53.531951
10   5  35.487167   44.885121   57.444725
11   1  36.741537   47.531368   59.085413
12   1  35.132651   49.697751   58.280033
13   2  38.298042   47.455598   58.954458
14   2  35.770593   51.025083   58.799182
15   3  36.291612   46.202165   58.726223
16   3  36.531074   47.839114   60.491320
17   3  34.486291   49.869864   57.020988
18   3  34.152354   49.355392   59.270623
19   4  36.249518   48.649166   58.120080
20   5  34.790296   47.346159   52.981936
21   1  32.819410   49.275887   53.985616
22   1  34.080328   49.914762   51.498391
23   2  31.581877   48.651976   53.385094
24   2  32.970010   49.361943   50.427360
25   3  32.255365   49.917567   55.080973
26   3  33.798773   48.240399   54.202634
27   3  34.736978   51.056886   50.952118
28   3  34.972698   48.877407   51.848232
29   4  33.198245   50.204734   52.792049
30   5  33.498509   51.033502   56.119265
31   1  32.609880   53.545984   54.763872
32   1  35.251447   52.900557   54.062323
33   2  31.813856   52.508623   53.926690
34   2  35.953932   53.582464   55.239053
35   3  31.768021   54.675942   54.704003
36   3  32.730546   52.929555   56.033209
37   3  34.938089   51.571351   54.420577
38   3  36.184040   53.083894   52.952938
39   4  33.901667   53.687226   53.887400
40   5  36.214909   52.150363   51.413272
41   1  13.944928   75.602690   68.690093
42   1  12.721427   77.840164   67.319734
43   2  13.571704   74.475537   67.654605
44   2  13.594154   79.053380   67.755626
45   3  13.837357   74.984393   69.995910
46   3  15.230166   76.011457   68.300968
47   3  13.263958   77.447298   66.039168
48   3  11.480152   78.495877   67.245838
49   4  12.808419   76.723298   68.430050
50   5   9.780532   78.180649   67.589127
51   1   6.920082   78.885008   66.261794
52   1   4.789243   77.958960   67.933353
53   2   6.396258   78.523007   64.750188
54   2   3.829524   76.955279   67.289800
55   3   8.289506   78.529553   66.298274
56   3   6.721777   80.264722   66.381526
57   3   4.966033   77.434202   69.240107
58   3   4.227068   79.205845   67.812690
59   4   6.145572   77.824263   67.196261
60   5  13.017013   74.307165   71.477581
61   1  11.322070   71.785327   70.238178
62   1  14.031921   71.231572   70.746098
63   2  11.267817   72.054720   68.734991
64   2  14.733470   71.748848   69.377608
65   3  11.492312   73.079922   70.822799
66   3  10.106987   71.126804   70.535632
67   3  14.134814   72.334405   71.595440
68   3  14.895295   70.140893   71.160480
69   4  12.539959   70.812513   70.405614
70   5   5.549723   76.590469   70.733938
71   1  10.929202   75.105993   73.806727
72   1   9.530780   76.952469   75.286525
73   2   9.898392   75.326746   72.662730
74   2   9.777726   76.992690   76.771001
75   3  10.464309   73.982581   74.545692
76   3  12.142415   74.805729   73.090208
77   3   9.353990   78.364922   75.002162
78   3   8.316633   76.165801   75.136864
79   4  10.836598   76.419293   74.708449
80   5   8.663666   70.480447   71.637534
81   1   6.718971   78.985092   72.097751
82   1   4.406665   77.620348   73.198717
83   2   6.554341   80.135634   71.097807
84   2   4.963227   76.836484   74.434379
85   3   6.855539   77.833619   71.321370
86   3   7.919088   79.384509   72.778721
87   3   3.116749   78.024437   73.635545
88   3   4.356153   76.670917   72.127680
89   4   5.403800   78.821398   73.056533
90   5  13.761590   69.107278   72.351243
91   1   5.711546   71.585153   71.279275
92   1   6.729260   74.034025   71.563638
93   2   5.177433   71.994857   69.959430
94   2   8.167904   73.598128   71.205379
95   3   4.727507   70.785383   71.906927
96   3   6.893891   70.856475   70.947209
97   3   6.168956   74.726224   70.477637
98   3   6.851798   74.923588   72.638410
99   4   5.915463   72.842325   72.113652
100  5   9.046244   79.834434   74.116341
101  1   8.209062   71.373751   74.830986
102  1   6.374744   73.100500   75.926337
103  2   9.553230   71.559897   75.593334
104  2   5.030576   72.364340   75.528793
105  3   8.571061   71.089388   73.498975
106  3   7.512190   70.240983   75.444610
107  3   6.685297   72.616895   77.237769
108  3   6.070740   74.505465   75.788836
109  4   7.524350   72.774043   74.900205
110  5   7.436422   74.765508   74.423150
111  1  11.882374   66.770651   72.206254
112  1   9.249226   67.518972   72.564514
113  2  11.918854   66.320726   70.762000
114  2   8.221222   66.862322   71.603859
115  3  12.834610   66.029818   72.997606
116  3  12.117159   68.183104   72.066880
117  3   8.694534   67.638704   73.875946
118  3   9.452207   68.803273   71.949022
119  4  10.393219   66.487225   72.610349
120  5   7.967729   68.213038   75.462379
